INSANE! Membrane UpperLeaflet>DPPC:DIPC:CHOL=20.0:65.0:15.0 LowerLeaflet>DPPC:DIPC:CHOL=20.0:65.0:15.0
73245
    1DPPC   NC3    1  27.822  14.021   6.493  0.0667  0.0581 -0.2465
    1DPPC   PO4    2  27.961  14.318   6.301 -0.3639  0.0751  0.0469
    1DPPC   GL1    3  27.729  14.320   5.976 -0.1085 -0.2768 -0.1680
    1DPPC   GL2    4  27.524  14.010   6.070 -0.0662  0.0286 -0.0063
    1DPPC   C1A    5  27.695  14.350   5.549  0.1545 -0.1224 -0.0653
    1DPPC   C2A    6  27.556  14.198   5.235 -0.1447  0.0099 -0.2662
    1DPPC   C3A    7  27.627  14.089   4.749 -0.1215 -0.2230  0.1288
    1DPPC   C4A    8  27.983  14.024   4.484 -0.1657  0.0783 -0.1227
    1DPPC   C1B    9  27.457  13.898   5.692  0.1161 -0.1161 -0.0420
    1DPPC   C2B   10  27.481  13.641   5.380  0.0593 -0.2184  0.0758
    1DPPC   C3B   11  27.381  13.758   5.048  0.3508 -0.3398  0.2044
    1DPPC   C4B   12  27.147  14.147   4.916  0.1937 -0.0894 -0.0473
    1DPPC   NC3   13  28.053  22.860   6.695 -0.0187  0.0108 -0.3602
    1DPPC   PO4   14  27.863  22.806   6.327  0.0570  0.0340 -0.1570
    1DPPC   GL1   15  27.575  22.538   6.123 -0.1175 -0.1356  0.2470
    1DPPC   GL2   16  27.591  22.195   6.073  0.1124 -0.1096  0.2574
    1DPPC   C1A   17  27.344  22.649   5.789  0.1544 -0.0479 -0.0211
    1DPPC   C2A   18  27.343  22.642   5.376 -0.0306  0.0382  0.1143
    1DPPC   C3A   19  27.497  22.810   5.066 -0.2830 -0.1228 -0.0931
    1DPPC   C4A   20  27.635  23.122   4.718 -0.2639 -0.1373 -0.0035
    1DPPC   C1B   21  27.559  22.149   5.701 -0.1716 -0.0012  0.0949
    1DPPC   C2B   22  27.529  22.221   5.164 -0.0824  0.2672 -0.0099
    1DPPC   C3B   23  27.549  22.370   4.857  0.0087  0.0415  0.1114
    1DPPC   C4B   24  27.641  22.617   4.525  0.0111 -0.1255 -0.0681
    1DPPC   NC3   25   7.988  16.746   6.589 -0.2356 -0.1177 -0.2699
    1DPPC   PO4   26   7.729  16.573   6.186 -0.2226  0.0943 -0.1376
    1DPPC   GL1   27   7.604  16.365   5.806 -0.3349  0.1398  0.0965
    1DPPC   GL2   28   7.298  16.356   5.762 -0.2532  0.2414  0.1045
    1DPPC   C1A   29   7.781  16.239   5.504 -0.1556  0.0363  0.0426
    1DPPC   C2A   30   7.801  16.132   5.142 -0.0051 -0.0852 -0.0466
    1DPPC   C3A   31   7.915  16.270   4.698  0.1894  0.1222  0.0555
    1DPPC   C4A   32   7.796  16.255   4.270 -0.0113 -0.0885 -0.0834
    1DPPC   C1B   33   7.369  16.272   5.287 -0.1462 -0.1354 -0.0221
    1DPPC   C2B   34   7.368  16.151   4.921 -0.0927  0.2388  0.4130
    1DPPC   C3B   35   7.299  15.997   4.507  0.2598  0.1915 -0.0242
    1DPPC   C4B   36   7.148  15.616   4.238 -0.0898 -0.0973 -0.1814
    1DPPC   NC3   37   9.277   0.091   6.656  0.3858  0.2447  0.1866
    1DPPC   PO4   38   8.839   0.272   6.869 -0.1296  0.1378 -0.4478
    1DPPC   GL1   39   8.748   0.320   6.372 -0.1247 -0.2024 -0.3723
    1DPPC   GL2   40   8.757   0.765   6.225 -0.0035  0.0408 -0.1433
    1DPPC   C1A   41   8.697   0.287   5.946  0.0728 -0.0453 -0.3157
    1DPPC   C2A   42   8.320   0.154   5.680 -0.0224  0.0730  0.2902
    1DPPC   C3A   43   8.133  30.298   5.368  0.2793  0.0791 -0.3208
    1DPPC   C4A   44   8.043  29.945   5.056  0.0547  0.0251  0.1145
    1DPPC   C1B   45   8.810   0.775   5.829 -0.0980 -0.0223  0.0611
    1DPPC   C2B   46   8.668   0.918   5.395  0.0284  0.0690 -0.1970
    1DPPC   C3B   47   8.283   1.094   5.122 -0.1094  0.1460  0.2020
    1DPPC   C4B   48   8.090   0.845   4.814  0.1080  0.0255  0.1369
    1DPPC   NC3   49   5.762  19.665   5.711 -0.2997 -0.2649 -0.0341
    1DPPC   PO4   50   5.502  19.320   5.621  0.2718 -0.0106  0.4148
    1DPPC   GL1   51   5.251  19.225   5.331  0.1450 -0.0855  0.1560
    1DPPC   GL2   52   5.277  18.961   5.245 -0.0747  0.1286  0.0165
    1DPPC   C1A   53   5.103  19.458   5.035  0.0597  0.2585 -0.2287
    1DPPC   C2A   54   5.082  19.385   4.673  0.1025  0.1289 -0.2264
    1DPPC   C3A   55   4.984  19.580   4.270 -0.0160 -0.1073  0.0163
    1DPPC   C4A   56   4.894  19.746   3.889  0.1443  0.2857  0.0301
    1DPPC   C1B   57   5.509  19.121   4.860 -0.1160  0.1827 -0.1626
    1DPPC   C2B   58   5.625  19.008   4.407 -0.0412  0.1815  0.1074
    1DPPC   C3B   59   5.596  18.871   4.061  0.1081  0.0348 -0.1948
    1DPPC   C4B   60   5.342  18.573   3.887 -0.0468  0.0996 -0.0563
    1DPPC   NC3   61   4.454  24.723   6.944 -0.0043  0.0883 -0.0144
    1DPPC   PO4   62   4.803  24.878   6.675  0.0177 -0.0390 -0.3109
    1DPPC   GL1   63   4.822  25.077   6.335  0.1944 -0.3186 -0.0876
    1DPPC   GL2   64   4.791  24.775   6.194 -0.0930 -0.0761  0.1272
    1DPPC   C1A   65   4.593  25.284   6.057 -0.2084 -0.0846  0.1632
    1DPPC   C2A   66   4.455  25.101   5.652  0.1328  0.2124  0.0954
    1DPPC   C3A   67   4.497  25.229   5.209  0.0541 -0.4847 -0.0336
    1DPPC   C4A   68   4.915  25.361   4.969  0.3473  0.1006  0.0832
    1DPPC   C1B   69   4.886  24.421   5.942 -0.1195  0.3084 -0.1092
    1DPPC   C2B   70   5.026  24.477   5.508 -0.1088  0.0826 -0.0535
    1DPPC   C3B   71   5.054  24.343   5.107 -0.1556  0.0290  0.0257
    1DPPC   C4B   72   5.134  24.229   4.624 -0.2184  0.1228 -0.1817
    1DPPC   NC3   73   1.906  17.093   6.379 -0.1632 -0.1680  0.2062
    1DPPC   PO4   74   1.519  17.390   6.282  0.0288  0.0084 -0.0513
    1DPPC   GL1   75   1.386  17.341   5.812  0.1811  0.1401  0.0231
    1DPPC   GL2   76   1.131  17.249   5.695 -0.1419 -0.1231  0.0963
    1DPPC   C1A   77   1.400  17.544   5.408 -0.3104 -0.0401  0.0410
    1DPPC   C2A   78   1.388  17.607   4.958  0.1728  0.1621  0.0842
    1DPPC   C3A   79   1.508  17.924   4.597 -0.0600 -0.3971  0.0953
    1DPPC   C4A   80   1.534  17.992   4.132  0.1327 -0.1646 -0.0751
    1DPPC   C1B   81   1.055  17.243   5.210  0.1233  0.1200 -0.2665
    1DPPC   C2B   82   1.053  17.315   4.834  0.0011 -0.1927 -0.0073
    1DPPC   C3B   83   0.772  17.335   4.475 -0.1047  0.2363 -0.0334
    1DPPC   C4B   84   0.784  17.647   4.154  0.0433  0.1850  0.1412
    1DPPC   NC3   85   6.218  19.054   6.061 -0.0710 -0.2628 -0.0211
    1DPPC   PO4   86   6.041  18.741   5.753 -0.4013  0.1473 -0.1856
    1DPPC   GL1   87   5.976  18.597   5.373  0.0506 -0.2889  0.3744
    1DPPC   GL2   88   6.251  18.713   5.215  0.0722  0.0061 -0.0749
    1DPPC   C1A   89   5.687  18.642   5.040  0.3445 -0.2263 -0.1555
    1DPPC   C2A   90   5.642  18.642   4.724  0.2767  0.0678 -0.1105
    1DPPC   C3A   91   5.817  18.548   4.404 -0.0653 -0.1993 -0.0811
    1DPPC   C4A   92   5.745  18.294   3.935  0.0665  0.3388  0.0310
    1DPPC   C1B   93   6.195  18.528   4.795 -0.0576  0.2892  0.1897
    1DPPC   C2B   94   6.281  18.310   4.391 -0.0235 -0.0308 -0.0586
    1DPPC   C3B   95   6.220  18.208   4.021  0.2134  0.1102 -0.2379
    1DPPC   C4B   96   6.104  17.970   3.719  0.0794  0.2147 -0.0124
    1DPPC   NC3   97   3.169  16.463   6.458 -0.1561 -0.1307  0.0746
    1DPPC   PO4   98   2.726  16.627   6.278  0.0186 -0.1316 -0.5410
    1DPPC   GL1   99   3.044  16.433   5.989 -0.0940  0.0674  0.2588
    1DPPC   GL2  100   3.302  16.344   6.006  0.0912 -0.1657 -0.0925
    1DPPC   C1A  101   2.999  16.296   5.570  0.1033 -0.0877  0.0759
    1DPPC   C2A  102   3.068  16.217   5.108  0.0460 -0.1818 -0.1102
    1DPPC   C3A  103   3.069  16.084   4.688  0.0094 -0.1618  0.2920
    1DPPC   C4A  104   2.748  15.858   4.468  0.0996  0.0208  0.1502
    1DPPC   C1B  105   3.530  16.349   5.585 -0.0216  0.0982  0.0478
    1DPPC   C2B  106   3.547  16.372   5.173 -0.2008 -0.1422 -0.0670
    1DPPC   C3B  107   3.637  16.118   4.744 -0.1838  0.0869  0.0904
    1DPPC   C4B  108   3.665  16.135   4.272  0.3442  0.4613 -0.1432
    1DPPC   NC3  109   1.108  21.341   6.355 -0.2171  0.0539 -0.1193
    1DPPC   PO4  110   1.374  21.670   6.235  0.0787 -0.0284  0.1331
    1DPPC   GL1  111   1.107  21.716   5.990 -0.1259 -0.4109 -0.0022
    1DPPC   GL2  112   0.907  21.411   5.909  0.0662 -0.1431  0.3145
    1DPPC   C1A  113   1.187  21.690   5.565 -0.0958 -0.0301  0.1605
    1DPPC   C2A  114   1.234  21.642   5.088  0.0957  0.0202  0.1918
    1DPPC   C3A  115   1.107  21.696   4.734 -0.1029  0.2389  0.1081
    1DPPC   C4A  116   1.106  21.691   4.263 -0.0938  0.1156  0.0107
    1DPPC   C1B  117   0.835  21.326   5.428  0.1168  0.1770 -0.0052
    1DPPC   C2B  118   0.870  21.319   4.996  0.2440 -0.3485  0.0741
    1DPPC   C3B  119   1.064  21.122   4.536 -0.0164 -0.1116  0.0809
    1DPPC   C4B  120   0.848  20.759   4.257  0.1227  0.1407 -0.1615
    1DPPC   NC3  121  18.906  19.046   5.789  0.5844  0.0707  0.2940
    1DPPC   PO4  122  19.149  19.353   5.764  0.1240  0.2299 -0.1498
    1DPPC   GL1  123  19.137  19.340   5.299 -0.3017  0.0861  0.0653
    1DPPC   GL2  124  19.114  19.607   5.196  0.1900  0.0975 -0.0280
    1DPPC   C1A  125  18.980  18.957   4.999 -0.2139  0.0829  0.1291
    1DPPC   C2A  126  19.175  18.818   4.615  0.0640  0.2805  0.1680
    1DPPC   C3A  127  19.218  18.531   4.297  0.2532  0.1520 -0.1223
    1DPPC   C4A  128  19.172  18.068   4.177 -0.1785  0.0932 -0.0542
    1DPPC   C1B  129  19.049  19.784   4.781 -0.2347 -0.2721 -0.0436
    1DPPC   C2B  130  18.962  20.068   4.501  0.1828  0.1350  0.1348
    1DPPC   C3B  131  19.130  20.090   4.085 -0.1001  0.1011 -0.0555
    1DPPC   C4B  132  19.531  20.213   3.974 -0.1899  0.1507  0.0309
    1DPPC   NC3  133   7.050  28.659   6.629  0.1054 -0.0740  0.0313
    1DPPC   PO4  134   7.245  28.334   6.809 -0.2283 -0.1576 -0.0583
    1DPPC   GL1  135   7.150  28.073   6.557  0.2309  0.0326 -0.4570
    1DPPC   GL2  136   7.408  27.772   6.510 -0.5712  0.2944  0.0788
    1DPPC   C1A  137   7.075  28.020   6.158  0.1305  0.1032 -0.3296
    1DPPC   C2A  138   6.789  28.000   5.780  0.3468 -0.0017  0.1858
    1DPPC   C3A  139   6.505  28.247   5.416 -0.0143 -0.0647  0.0070
    1DPPC   C4A  140   6.453  28.084   5.015  0.0624 -0.0733  0.0278
    1DPPC   C1B  141   7.477  27.712   6.041  0.1343 -0.0095 -0.2828
    1DPPC   C2B  142   7.284  27.877   5.629 -0.2034  0.0360 -0.1038
    1DPPC   C3B  143   7.395  28.066   5.219 -0.0594  0.0855  0.0118
    1DPPC   C4B  144   7.386  28.386   4.816 -0.0898  0.0863 -0.0683
    1DPPC   NC3  145   3.008   7.888   6.695 -0.2830 -0.0948 -0.3804
    1DPPC   PO4  146   3.191   8.098   6.301  0.3722 -0.0122  0.1705
    1DPPC   GL1  147   3.407   8.100   6.010  0.0288  0.4381  0.0219
    1DPPC   GL2  148   3.540   7.782   5.866 -0.3137  0.1657 -0.0897
    1DPPC   C1A  149   3.474   8.196   5.514 -0.1315 -0.0840  0.3781
    1DPPC   C2A  150   3.629   7.902   5.143 -0.1337 -0.2635  0.0207
    1DPPC   C3A  151   3.846   7.990   4.743  0.3544 -0.0364  0.1985
    1DPPC   C4A  152   3.712   8.118   4.361  0.0206 -0.1619  0.3205
    1DPPC   C1B  153   3.148   7.773   5.668  0.1733  0.0089  0.0433
    1DPPC   C2B  154   2.716   7.888   5.367 -0.1003  0.0711  0.1164
    1DPPC   C3B  155   2.600   8.209   5.174  0.0930  0.1326  0.2692
    1DPPC   C4B  156   2.555   8.616   5.003  0.0157  0.1907  0.2325
    1DPPC   NC3  157   9.329  14.991   7.164 -0.1243  0.1403 -0.3575
    1DPPC   PO4  158   9.510  14.787   6.920  0.1896 -0.0001 -0.0861
    1DPPC   GL1  159   9.692  14.790   6.493 -0.1694 -0.0748 -0.1846
    1DPPC   GL2  160   9.965  14.766   6.374 -0.1782 -0.0398  0.2148
    1DPPC   C1A  161   9.597  14.656   6.087  0.1364  0.1324  0.2751
    1DPPC   C2A  162   9.579  14.779   5.584  0.1936 -0.1050 -0.0174
    1DPPC   C3A  163   9.420  14.686   5.176 -0.0085  0.3386  0.0475
    1DPPC   C4A  164   9.170  14.339   4.952  0.0582  0.1839 -0.2853
    1DPPC   C1B  165  10.016  14.659   5.858 -0.2963 -0.2497 -0.1049
    1DPPC   C2B  166   9.884  14.323   5.515  0.0221  0.0508 -0.0827
    1DPPC   C3B  167   9.688  14.192   5.134 -0.0397  0.1754  0.2572
    1DPPC   C4B  168   9.447  13.812   4.914  0.3125  0.1494  0.1589
    1DPPC   NC3  169   0.564  18.974   6.266  0.3092 -0.1144 -0.1346
    1DPPC   PO4  170   0.559  18.513   6.273 -0.1367 -0.2362 -0.1087
    1DPPC   GL1  171   0.527  18.718   5.803 -0.2702  0.0296 -0.0955
    1DPPC   GL2  172   0.356  19.021   5.807  0.0387 -0.1805  0.2940
    1DPPC   C1A  173   0.392  18.803   5.388 -0.1478  0.1080  0.2517
    1DPPC   C2A  174   0.353  18.689   5.002 -0.0721  0.1404  0.0060
    1DPPC   C3A  175   0.310  18.738   4.627  0.0657  0.0056  0.4391
    1DPPC   C4A  176   0.100  18.551   4.229 -0.0811 -0.0712 -0.1522
    1DPPC   C1B  177   0.048  19.154   5.502  0.2384 -0.1360  0.1136
    1DPPC   C2B  178   0.011  19.077   5.003  0.2216 -0.0083  0.1853
    1DPPC   C3B  179  30.215  18.990   4.578 -0.0038  0.3362  0.1000
    1DPPC   C4B  180  30.099  18.918   4.226  0.0774  0.2662 -0.1513
    1DPPC   NC3  181  28.470  20.819   6.676 -0.1187  0.1757 -0.1299
    1DPPC   PO4  182  28.414  20.962   6.346  0.1538 -0.0703 -0.0746
    1DPPC   GL1  183  28.657  21.084   5.994 -0.1688 -0.0597  0.0815
    1DPPC   GL2  184  28.769  21.406   6.144  0.0634  0.1023  0.0486
    1DPPC   C1A  185  28.567  21.108   5.538 -0.0068 -0.1607  0.2305
    1DPPC   C2A  186  28.707  21.154   5.109  0.0495 -0.0154  0.3519
    1DPPC   C3A  187  28.886  21.111   4.694 -0.1072 -0.0921 -0.1794
    1DPPC   C4A  188  28.764  21.185   4.205 -0.0197  0.3370  0.2046
    1DPPC   C1B  189  28.689  21.646   5.722 -0.0123  0.0193 -0.0340
    1DPPC   C2B  190  28.679  21.707   5.321 -0.1552 -0.0543  0.0035
    1DPPC   C3B  191  28.891  21.601   4.940  0.4109 -0.1302 -0.1188
    1DPPC   C4B  192  29.006  21.620   4.503 -0.1687  0.2411  0.0794
    1DPPC   NC3  193  28.095  10.874   6.347 -0.3297 -0.0755 -0.0953
    1DPPC   PO4  194  28.303  10.602   6.607 -0.1824 -0.1177 -0.1441
    1DPPC   GL1  195  28.440  10.525   6.232  0.0239  0.0777  0.4498
    1DPPC   GL2  196  28.335  10.326   6.050  0.1507 -0.2176 -0.0886
    1DPPC   C1A  197  28.687  10.611   5.845  0.0787  0.2145 -0.0413
    1DPPC   C2A  198  28.707  10.473   5.491 -0.0218  0.2415 -0.5244
    1DPPC   C3A  199  28.584  10.126   5.201 -0.1642  0.1360 -0.1764
    1DPPC   C4A  200  28.444  10.253   4.778  0.1074  0.1204  0.2369
    1DPPC   C1B  201  28.206  10.446   5.532  0.0824 -0.0767  0.0103
    1DPPC   C2B  202  28.003  10.346   5.166 -0.0109  0.0192  0.2709
    1DPPC   C3B  203  27.629  10.510   4.963  0.1940 -0.2648  0.2986
    1DPPC   C4B  204  27.335  10.508   4.695  0.0216 -0.0690 -0.1880
    1DPPC   NC3  205  25.179  22.754   6.455 -0.1419  0.1557  0.0872
    1DPPC   PO4  206  25.182  22.313   6.357  0.1582 -0.1835 -0.2870
    1DPPC   GL1  207  25.381  22.212   6.012  0.1159 -0.0826  0.1198
    1DPPC   GL2  208  25.189  22.151   5.791 -0.0490  0.2395  0.1400
    1DPPC   C1A  209  25.714  22.347   5.716 -0.0230 -0.0655 -0.2977
    1DPPC   C2A  210  25.804  22.456   5.337  0.0770  0.2414 -0.0889
    1DPPC   C3A  211  25.869  22.551   5.003 -0.0157  0.1358  0.0876
    1DPPC   C4A  212  25.607  22.801   4.726  0.2153 -0.0917  0.3955
    1DPPC   C1B  213  24.887  22.343   5.497  0.2022 -0.1695  0.3155
    1DPPC   C2B  214  24.661  22.371   5.066 -0.0193  0.0974  0.1669
    1DPPC   C3B  215  24.688  22.649   4.717 -0.1286 -0.0968  0.1634
    1DPPC   C4B  216  24.513  22.680   4.333  0.2020 -0.0353  0.2698
    1DPPC   NC3  217  28.949  24.382   6.310 -0.0468  0.2893  0.0763
    1DPPC   PO4  218  28.499  24.531   6.428 -0.3011  0.0119 -0.1454
    1DPPC   GL1  219  28.409  24.413   5.984  0.0695  0.2310 -0.4048
    1DPPC   GL2  220  28.494  24.150   6.112  0.2447  0.4472  0.3859
    1DPPC   C1A  221  28.210  24.358   5.493 -0.0746  0.1691 -0.3615
    1DPPC   C2A  222  28.262  24.389   5.004 -0.0246  0.1840 -0.1424
    1DPPC   C3A  223  27.932  24.108   4.741 -0.0705  0.0764 -0.3001
    1DPPC   C4A  224  27.405  24.024   4.636 -0.0935  0.1557 -0.2498
    1DPPC   C1B  225  28.229  23.920   5.885  0.2284 -0.1895 -0.0251
    1DPPC   C2B  226  28.379  23.472   5.805 -0.1170 -0.0972  0.2281
    1DPPC   C3B  227  28.455  23.420   5.381  0.6548 -0.1324 -0.0608
    1DPPC   C4B  228  28.660  23.601   5.123  0.2387  0.4690 -0.0580
    1DPPC   NC3  229   7.196   8.010   6.694  0.4013 -0.1737 -0.1448
    1DPPC   PO4  230   6.993   8.380   6.526 -0.0355  0.0326  0.1115
    1DPPC   GL1  231   6.972   8.053   6.214 -0.1927 -0.2060  0.0007
    1DPPC   GL2  232   6.679   7.973   6.177  0.0776 -0.1675 -0.1229
    1DPPC   C1A  233   6.999   7.923   5.814  0.1394 -0.1439  0.4324
    1DPPC   C2A  234   7.223   7.695   5.550  0.1239  0.1381  0.2404
    1DPPC   C3A  235   7.571   7.521   5.375  0.0435  0.1892  0.1734
    1DPPC   C4A  236   7.931   7.613   5.384 -0.1466  0.1425  0.1212
    1DPPC   C1B  237   6.444   7.759   5.858  0.1496  0.1458  0.0007
    1DPPC   C2B  238   6.407   7.414   5.541  0.2316  0.0840 -0.3720
    1DPPC   C3B  239   6.315   6.952   5.337  0.0813 -0.1285  0.1146
    1DPPC   C4B  240   6.173   6.562   5.389 -0.0901 -0.0145 -0.0204
    1DPPC   NC3  241   0.087  22.612   7.129  0.0792 -0.0253  0.1395
    1DPPC   PO4  242  30.081  22.607   6.833  0.2978 -0.0188 -0.2003
    1DPPC   GL1  243  30.237  22.802   6.453 -0.2636 -0.0167 -0.0207
    1DPPC   GL2  244  29.984  22.680   6.327  0.0027  0.0144 -0.0029
    1DPPC   C1A  245  30.347  22.650   6.014 -0.0802 -0.3780 -0.6389
    1DPPC   C2A  246   0.013  22.757   5.650  0.0514 -0.2611  0.0850
    1DPPC   C3A  247  30.349  22.731   5.283  0.0540 -0.2972 -0.1899
    1DPPC   C4A  248  30.254  22.691   4.901  0.1944  0.0442  0.1492
    1DPPC   C1B  249  29.853  22.806   5.935  0.0702 -0.1871 -0.1476
    1DPPC   C2B  250  29.962  22.989   5.562 -0.3747  0.1515 -0.0165
    1DPPC   C3B  251  29.972  23.073   5.131 -0.0701 -0.0152  0.1100
    1DPPC   C4B  252  29.884  23.205   4.645  0.4754  0.2756 -0.0723
    1DPPC   NC3  253   5.165  23.097   6.228  0.0719  0.0632  0.2812
    1DPPC   PO4  254   5.410  23.396   6.191  0.0771  0.1182  0.1242
    1DPPC   GL1  255   5.179  23.763   6.007 -0.2490 -0.0839 -0.0030
    1DPPC   GL2  256   5.260  24.010   6.263  0.1297 -0.0372 -0.2700
    1DPPC   C1A  257   5.031  23.942   5.623 -0.1633 -0.0890  0.0503
    1DPPC   C2A  258   4.754  23.991   5.274  0.1383  0.0060  0.2037
    1DPPC   C3A  259   4.769  23.827   4.944  0.2295 -0.0765  0.0337
    1DPPC   C4A  260   4.402  24.039   4.841  0.0454 -0.0140  0.0608
    1DPPC   C1B  261   5.388  24.186   5.822  0.1225 -0.3064 -0.0961
    1DPPC   C2B  262   5.440  24.206   5.415 -0.0829  0.3441 -0.1437
    1DPPC   C3B  263   5.533  24.258   4.949  0.3986 -0.1709  0.2820
    1DPPC   C4B  264   5.595  24.398   4.527 -0.1005 -0.0766  0.0618
    1DPPC   NC3  265  28.356  19.996   6.179 -0.0314  0.3600  0.1752
    1DPPC   PO4  266  28.074  19.712   6.052 -0.1837  0.4302 -0.3472
    1DPPC   GL1  267  28.091  19.862   5.690 -0.2923  0.0739 -0.2158
    1DPPC   GL2  268  27.808  20.028   5.686 -0.2299  0.0401  0.0454
    1DPPC   C1A  269  28.022  19.653   5.274 -0.0212  0.0264 -0.1092
    1DPPC   C2A  270  28.053  19.737   4.784 -0.1717 -0.1422 -0.2867
    1DPPC   C3A  271  27.964  19.639   4.331  0.0672  0.1774  0.0154
    1DPPC   C4A  272  28.138  19.856   3.979  0.0535  0.1187 -0.0026
    1DPPC   C1B  273  27.809  20.107   5.292  0.1905  0.1143 -0.2650
    1DPPC   C2B  274  27.873  20.221   4.813 -0.1408  0.1639  0.3258
    1DPPC   C3B  275  27.838  20.152   4.427 -0.0818  0.2358 -0.1743
    1DPPC   C4B  276  27.691  20.032   4.065  0.0562 -0.1597 -0.2657
    1DPPC   NC3  277   6.049   6.227   6.677  0.0619 -0.2872  0.0193
    1DPPC   PO4  278   6.504   6.327   6.846  0.1194 -0.0779 -0.1504
    1DPPC   GL1  279   6.551   6.283   6.424  0.1909 -0.0830  0.1468
    1DPPC   GL2  280   6.322   6.139   6.228 -0.1865 -0.0220 -0.4030
    1DPPC   C1A  281   6.687   6.526   6.033  0.0916  0.1209 -0.2289
    1DPPC   C2A  282   6.598   6.474   5.615 -0.0831 -0.0499 -0.0081
    1DPPC   C3A  283   6.511   6.257   5.148 -0.1021 -0.3626 -0.1232
    1DPPC   C4A  284   6.517   5.898   4.724 -0.1554  0.1121 -0.2299
    1DPPC   C1B  285   6.238   6.271   5.838 -0.0238 -0.1996  0.0666
    1DPPC   C2B  286   6.208   6.062   5.478 -0.1829  0.1322 -0.2272
    1DPPC   C3B  287   6.034   5.997   5.153 -0.0429  0.0486 -0.0577
    1DPPC   C4B  288   5.655   5.687   5.076 -0.1535  0.1939 -0.0940
    1DPPC   NC3  289  27.062  18.688   6.217  0.0015  0.0254 -0.4504
    1DPPC   PO4  290  26.827  18.900   5.866 -0.1733  0.0060 -0.0977
    1DPPC   GL1  291  26.589  18.601   5.629 -0.3653  0.0038 -0.0954
    1DPPC   GL2  292  26.851  18.386   5.602  0.1982  0.0316  0.2335
    1DPPC   C1A  293  26.399  18.594   5.269  0.0032  0.1464 -0.2680
    1DPPC   C2A  294  26.373  18.592   4.842  0.2553 -0.2552  0.1497
    1DPPC   C3A  295  26.178  18.496   4.448  0.1746 -0.3493 -0.2910
    1DPPC   C4A  296  26.047  18.476   3.964 -0.2904 -0.0127 -0.2819
    1DPPC   C1B  297  26.805  18.332   5.162  0.4609 -0.2283  0.1674
    1DPPC   C2B  298  26.848  18.459   4.806  0.1764  0.0372  0.0258
    1DPPC   C3B  299  26.713  18.417   4.506  0.3912 -0.0063  0.0742
    1DPPC   C4B  300  26.630  18.599   4.163 -0.1417 -0.1345  0.3473
    1DPPC   NC3  301  29.428  15.112   6.283 -0.1312 -0.0527 -0.0328
    1DPPC   PO4  302  29.693  14.697   6.401 -0.2253 -0.1613  0.0199
    1DPPC   GL1  303  29.428  14.470   6.105 -0.2613  0.0899 -0.0961
    1DPPC   GL2  304  29.202  14.172   6.056 -0.1256  0.0228 -0.2464
    1DPPC   C1A  305  29.440  14.442   5.712  0.4251 -0.1538 -0.0085
    1DPPC   C2A  306  29.449  14.446   5.298 -0.0720 -0.3211  0.0832
    1DPPC   C3A  307  29.430  14.396   4.904 -0.0118 -0.0328  0.2284
    1DPPC   C4A  308  29.181  14.600   4.603  0.0597  0.0696  0.3034
    1DPPC   C1B  309  29.167  14.035   5.646 -0.0134 -0.2077 -0.0166
    1DPPC   C2B  310  29.198  14.057   5.167 -0.0901  0.0293  0.2926
    1DPPC   C3B  311  29.191  13.734   4.801  0.0226  0.1754 -0.2346
    1DPPC   C4B  312  29.160  13.377   4.405 -0.3720 -0.2122  0.3521
    1DPPC   NC3  313   4.095  13.954   6.420  0.0356  0.2968 -0.0118
    1DPPC   PO4  314   3.900  14.383   6.619  0.0899  0.0157 -0.0856
    1DPPC   GL1  315   3.875  14.424   6.230  0.0308 -0.1993  0.2029
    1DPPC   GL2  316   3.887  14.662   5.975  0.0808  0.2321  0.0985
    1DPPC   C1A  317   3.554  14.267   5.911 -0.1225  0.2187  0.0108
    1DPPC   C2A  318   3.409  14.186   5.486  0.2544 -0.1281  0.0932
    1DPPC   C3A  319   3.449  14.134   5.105  0.0293  0.0141 -0.0876
    1DPPC   C4A  320   3.347  14.163   4.590 -0.2217  0.1011  0.1256
    1DPPC   C1B  321   3.871  14.475   5.464  0.0534  0.2267 -0.2241
    1DPPC   C2B  322   3.942  14.353   5.007  0.0097 -0.1913 -0.2609
    1DPPC   C3B  323   3.821  14.110   4.697 -0.1040 -0.1677  0.1415
    1DPPC   C4B  324   3.719  13.905   4.281  0.0826 -0.1575 -0.0415
    1DPPC   NC3  325   3.561  14.733   6.489 -0.0512 -0.0487  0.2332
    1DPPC   PO4  326   3.113  14.608   6.571 -0.4087  0.4216  0.0840
    1DPPC   GL1  327   3.194  14.563   6.139 -0.1216 -0.2730 -0.0269
    1DPPC   GL2  328   3.233  14.845   6.007 -0.2459  0.1506  0.0266
    1DPPC   C1A  329   2.903  14.272   5.843 -0.0670  0.0791  0.1002
    1DPPC   C2A  330   2.970  14.379   5.337 -0.2069  0.0970 -0.0509
    1DPPC   C3A  331   2.986  14.363   4.969  0.0165  0.0301  0.0718
    1DPPC   C4A  332   2.849  14.313   4.538  0.0689  0.0558  0.1562
    1DPPC   C1B  333   3.372  14.640   5.669 -0.0436 -0.0357 -0.0640
    1DPPC   C2B  334   3.408  14.634   5.253 -0.0382 -0.0998  0.2306
    1DPPC   C3B  335   3.598  14.595   4.783  0.2466 -0.2342 -0.2290
    1DPPC   C4B  336   3.913  14.542   4.480 -0.0278  0.0788  0.1656
    1DPPC   NC3  337  27.597  12.024   6.706 -0.0096  0.0170 -0.1833
    1DPPC   PO4  338  27.977  11.699   6.459  0.0081  0.4617 -0.2171
    1DPPC   GL1  339  28.101  11.718   6.156 -0.0394  0.2572 -0.1950
    1DPPC   GL2  340  27.917  11.852   5.974  0.1821 -0.1995  0.0609
    1DPPC   C1A  341  28.292  11.535   5.866  0.1511  0.1421  0.1922
    1DPPC   C2A  342  28.358  11.432   5.476 -0.0598 -0.2349 -0.0818
    1DPPC   C3A  343  28.384  11.278   5.084 -0.1996 -0.2881 -0.0354
    1DPPC   C4A  344  28.411  11.334   4.672 -0.2038  0.0483 -0.0192
    1DPPC   C1B  345  27.830  11.743   5.662  0.0943 -0.0356 -0.2349
    1DPPC   C2B  346  27.934  11.656   5.286  0.2790  0.0737  0.0400
    1DPPC   C3B  347  27.890  11.460   4.981  0.0267  0.2736 -0.0367
    1DPPC   C4B  348  27.896  11.171   4.713 -0.3281  0.0090 -0.1810
    1DPPC   NC3  349   4.191   4.936   7.505 -0.1096  0.2322 -0.1823
    1DPPC   PO4  350   4.217   5.214   7.138  0.0100  0.0628 -0.0411
    1DPPC   GL1  351   4.144   5.235   6.691  0.3053 -0.1198 -0.1281
    1DPPC   GL2  352   4.429   5.136   6.520  0.4480  0.2140  0.1487
    1DPPC   C1A  353   3.955   5.327   6.274  0.2144 -0.0180 -0.0044
    1DPPC   C2A  354   3.662   5.474   5.966 -0.1106  0.0874  0.2387
    1DPPC   C3A  355   3.629   5.571   5.482 -0.1065  0.3317 -0.1624
    1DPPC   C4A  356   3.695   5.580   5.038  0.0616  0.0250  0.2704
    1DPPC   C1B  357   4.463   5.306   6.118  0.3243  0.0280  0.2700
    1DPPC   C2B  358   4.139   5.427   5.679  0.1009  0.0581 -0.2272
    1DPPC   C3B  359   4.200   5.377   5.182 -0.0265 -0.0440 -0.0888
    1DPPC   C4B  360   4.408   4.992   4.897 -0.0782 -0.2224 -0.1673
    1DPPC   NC3  361   0.733  22.910   6.718  0.0460  0.1209 -0.1513
    1DPPC   PO4  362   0.371  22.621   6.736 -0.0275 -0.1375 -0.0117
    1DPPC   GL1  363   0.431  22.588   6.367 -0.1140 -0.1038  0.3243
    1DPPC   GL2  364   0.522  22.299   6.265 -0.4438 -0.3002 -0.0350
    1DPPC   C1A  365   0.574  22.739   5.958 -0.0965  0.1131  0.4094
    1DPPC   C2A  366   0.495  22.794   5.597 -0.0243 -0.2195  0.0054
    1DPPC   C3A  367   0.471  22.881   5.211 -0.0948 -0.0860  0.2223
    1DPPC   C4A  368   0.314  22.881   4.742  0.1379 -0.0066 -0.1596
    1DPPC   C1B  369   0.381  22.317   5.820 -0.0331  0.1225  0.0489
    1DPPC   C2B  370   0.293  22.320   5.441  0.1998  0.0080 -0.0313
    1DPPC   C3B  371   0.297  22.447   5.005  0.4290 -0.2244  0.0366
    1DPPC   C4B  372   0.503  22.404   4.631  0.0701  0.1095  0.0053
    1DPPC   NC3  373  27.415  11.382   6.517 -0.2908  0.1258  0.0208
    1DPPC   PO4  374  27.378  11.766   6.327 -0.0377 -0.0949 -0.1327
    1DPPC   GL1  375  27.410  11.580   5.979  0.1220  0.1546 -0.2095
    1DPPC   GL2  376  27.287  11.318   5.958 -0.2314 -0.1243  0.0361
    1DPPC   C1A  377  27.416  11.516   5.519  0.0917  0.1151 -0.1072
    1DPPC   C2A  378  27.476  11.619   5.149 -0.1615  0.0445  0.1129
    1DPPC   C3A  379  27.225  11.729   4.784  0.0434 -0.1895 -0.0908
    1DPPC   C4A  380  27.251  11.918   4.479 -0.1743 -0.2304  0.3216
    1DPPC   C1B  381  27.413  11.029   5.623  0.1530  0.0350 -0.1893
    1DPPC   C2B  382  27.461  11.012   5.225  0.0827 -0.0456  0.2783
    1DPPC   C3B  383  27.361  11.226   4.821  0.3963  0.0422  0.0917
    1DPPC   C4B  384  27.414  11.450   4.433 -0.4611 -0.1471 -0.0187
    1DPPC   NC3  385  22.753  26.369   6.457  0.0722 -0.2232 -0.1468
    1DPPC   PO4  386  22.708  26.732   6.688 -0.1482 -0.0671 -0.1470
    1DPPC   GL1  387  22.689  26.847   6.281 -0.0662  0.1501  0.0506
    1DPPC   GL2  388  22.367  26.805   6.209 -0.5001 -0.0329 -0.0960
    1DPPC   C1A  389  22.792  27.098   5.832 -0.1509  0.0332  0.0168
    1DPPC   C2A  390  22.946  27.383   5.536  0.0495  0.0884  0.0368
    1DPPC   C3A  391  23.367  27.556   5.467 -0.0395 -0.0963  0.0568
    1DPPC   C4A  392  23.613  27.393   5.085  0.0221 -0.1431  0.2482
    1DPPC   C1B  393  22.318  27.003   5.818  0.1140 -0.0899 -0.1356
    1DPPC   C2B  394  22.414  27.131   5.454  0.0338 -0.0284  0.1987
    1DPPC   C3B  395  22.738  27.157   5.151  0.0614 -0.0126 -0.0631
    1DPPC   C4B  396  23.097  27.229   5.025  0.0663  0.0747 -0.0958
    1DPPC   NC3  397   4.621   2.359   7.205  0.0084 -0.2180 -0.0241
    1DPPC   PO4  398   4.348   2.730   7.272  0.1320 -0.4177 -0.0106
    1DPPC   GL1  399   4.390   2.850   6.826 -0.2376 -0.1002 -0.0851
    1DPPC   GL2  400   4.301   3.157   6.784  0.1565  0.2312  0.0525
    1DPPC   C1A  401   4.304   2.585   6.458  0.0439  0.0659 -0.0021
    1DPPC   C2A  402   4.114   2.299   6.139 -0.1973  0.3595 -0.0078
    1DPPC   C3A  403   4.301   2.305   5.618 -0.2392 -0.2355  0.0016
    1DPPC   C4A  404   4.367   2.153   5.130 -0.0991 -0.2376 -0.1452
    1DPPC   C1B  405   4.268   3.025   6.303  0.4465 -0.2596 -0.1254
    1DPPC   C2B  406   4.434   2.785   5.957 -0.2233  0.2992 -0.0222
    1DPPC   C3B  407   4.647   2.700   5.603 -0.0607  0.0538  0.1172
    1DPPC   C4B  408   5.076   2.432   5.473  0.1225 -0.1542  0.1506
    1DPPC   NC3  409  27.322  15.172   6.946  0.1684  0.1370  0.3019
    1DPPC   PO4  410  26.926  15.127   6.633 -0.0486  0.1134 -0.1223
    1DPPC   GL1  411  26.890  15.151   6.168 -0.2011 -0.0224 -0.1598
    1DPPC   GL2  412  26.897  14.781   5.909 -0.1537  0.0677  0.1587
    1DPPC   C1A  413  27.215  15.203   5.897  0.1177  0.2306 -0.1864
    1DPPC   C2A  414  27.173  15.199   5.459  0.0869 -0.1161 -0.2699
    1DPPC   C3A  415  27.080  15.212   5.172  0.4640 -0.1809  0.1204
    1DPPC   C4A  416  27.033  15.125   4.832 -0.0225 -0.1598  0.1961
    1DPPC   C1B  417  26.888  14.817   5.468 -0.4919  0.0136  0.1132
    1DPPC   C2B  418  26.794  14.782   5.101  0.2716 -0.2908 -0.2282
    1DPPC   C3B  419  26.784  14.694   4.697  0.0216  0.0382  0.0712
    1DPPC   C4B  420  26.532  14.643   4.391 -0.0727 -0.0448 -0.1638
    1DPPC   NC3  421   7.759  14.365   6.835  0.1315 -0.0993  0.0967
    1DPPC   PO4  422   7.448  14.657   6.621 -0.2762 -0.0702 -0.0893
    1DPPC   GL1  423   7.493  14.647   6.147 -0.0835  0.1773  0.3233
    1DPPC   GL2  424   7.454  14.925   6.106  0.2253 -0.2586  0.3868
    1DPPC   C1A  425   7.341  14.511   5.692 -0.3958 -0.1812 -0.0259
    1DPPC   C2A  426   7.306  14.537   5.281  0.1912 -0.1502  0.2745
    1DPPC   C3A  427   7.544  14.504   4.936  0.1680  0.1210  0.0752
    1DPPC   C4A  428   7.909  14.370   4.688  0.1420  0.1969 -0.0538
    1DPPC   C1B  429   7.028  14.859   5.898  0.0940 -0.0717  0.0802
    1DPPC   C2B  430   6.893  14.899   5.448  0.0588  0.2291 -0.1836
    1DPPC   C3B  431   6.643  14.746   5.066 -0.0541  0.0017  0.0382
    1DPPC   C4B  432   6.276  14.901   4.778  0.3083 -0.1198  0.1494
    1DPPC   NC3  433   3.862  17.204   6.131 -0.1208  0.0941 -0.0077
    1DPPC   PO4  434   4.276  17.060   6.285  0.0881 -0.0640  0.1994
    1DPPC   GL1  435   4.332  16.929   5.878  0.0048 -0.2746  0.0478
    1DPPC   GL2  436   4.547  16.767   5.653  0.2379 -0.0334 -0.3560
    1DPPC   C1A  437   4.186  17.006   5.447 -0.0533 -0.0796  0.2871
    1DPPC   C2A  438   4.143  16.978   5.075  0.1691  0.0002  0.3081
    1DPPC   C3A  439   4.046  16.916   4.676 -0.1733 -0.0517 -0.0647
    1DPPC   C4A  440   4.007  16.876   4.211 -0.0617 -0.0688  0.1648
    1DPPC   C1B  441   4.469  16.703   5.247 -0.2900 -0.3550 -0.0639
    1DPPC   C2B  442   4.482  16.680   4.830  0.0787 -0.0189  0.0311
    1DPPC   C3B  443   4.493  16.731   4.391 -0.3667 -0.0520  0.1112
    1DPPC   C4B  444   4.680  16.860   4.077  0.0937 -0.1542  0.0312
    1DPPC   NC3  445  29.677  11.033   6.789  0.1665 -0.5189 -0.1042
    1DPPC   PO4  446  29.673  11.479   6.887  0.0925 -0.1185 -0.0155
    1DPPC   GL1  447  29.857  11.529   6.515  0.0375  0.1439  0.1150
    1DPPC   GL2  448  29.696  11.322   6.345  0.1984 -0.2222  0.1188
    1DPPC   C1A  449  30.200  11.730   6.163  0.3398 -0.1885 -0.1659
    1DPPC   C2A  450  30.293  11.584   5.685  0.0660 -0.1451  0.1708
    1DPPC   C3A  451   0.071  11.411   5.285 -0.1217  0.2668 -0.2347
    1DPPC   C4A  452   0.403  11.129   5.125  0.2707  0.1431  0.1845
    1DPPC   C1B  453  29.907  11.281   5.919 -0.0002  0.2673 -0.2498
    1DPPC   C2B  454  29.888  11.330   5.507 -0.1719 -0.1833  0.2029
    1DPPC   C3B  455  29.885  11.314   5.107  0.1386  0.1451 -0.2461
    1DPPC   C4B  456  30.075  11.489   4.816  0.0986  0.0027 -0.1827
    1DPPC   NC3  457  30.000  13.682   6.793 -0.0276 -0.0451  0.0884
    1DPPC   PO4  458  29.701  13.757   6.547 -0.0788 -0.0138 -0.2258
    1DPPC   GL1  459  29.699  13.927   6.087  0.3011  0.1337 -0.0858
    1DPPC   GL2  460  29.911  13.642   5.976 -0.1000 -0.2009 -0.0437
    1DPPC   C1A  461  29.688  14.026   5.626  0.0278  0.2022  0.2471
    1DPPC   C2A  462  29.688  13.973   5.218  0.3122 -0.2202 -0.2138
    1DPPC   C3A  463  29.738  13.730   4.829 -0.1424 -0.0248 -0.0247
    1DPPC   C4A  464  29.653  13.729   4.510 -0.3338 -0.0621 -0.1780
    1DPPC   C1B  465  29.988  13.505   5.513 -0.3466 -0.1099 -0.0597
    1DPPC   C2B  466  30.035  13.377   5.136 -0.0538 -0.0708  0.0909
    1DPPC   C3B  467  30.049  13.384   4.742 -0.0839 -0.2550 -0.3309
    1DPPC   C4B  468  30.235  13.355   4.407  0.0199  0.1930  0.0945
    1DPPC   NC3  469   7.471   4.232   6.913  0.1220 -0.0521  0.0402
    1DPPC   PO4  470   7.034   4.326   6.955  0.4656  0.1604  0.0987
    1DPPC   GL1  471   6.977   4.116   6.593 -0.3033  0.0790  0.1850
    1DPPC   GL2  472   7.244   3.950   6.484 -0.1632 -0.0709 -0.0702
    1DPPC   C1A  473   6.701   3.984   6.254  0.4821 -0.1901 -0.0558
    1DPPC   C2A  474   6.484   3.754   5.866 -0.2638 -0.1525  0.2033
    1DPPC   C3A  475   6.153   3.682   5.560 -0.3474 -0.2954  0.0281
    1DPPC   C4A  476   5.956   3.866   5.235  0.0496 -0.2264 -0.2018
    1DPPC   C1B  477   7.159   3.898   6.063 -0.0891  0.1406  0.1720
    1DPPC   C2B  478   7.067   3.543   5.827 -0.1553 -0.0878 -0.2888
    1DPPC   C3B  479   6.909   3.103   5.827  0.0781  0.2398  0.3381
    1DPPC   C4B  480   6.884   2.801   5.604  0.2317 -0.1247 -0.1474
    1DPPC   NC3  481   5.572  22.381   6.250  0.1678  0.0757 -0.1708
    1DPPC   PO4  482   6.000  22.322   6.164 -0.0355 -0.0127 -0.2207
    1DPPC   GL1  483   6.021  22.250   5.731 -0.0088 -0.0342 -0.2364
    1DPPC   GL2  484   6.073  21.911   5.601  0.0359  0.1069  0.2179
    1DPPC   C1A  485   5.686  22.358   5.447  0.0779 -0.0046  0.3881
    1DPPC   C2A  486   5.677  22.459   5.050 -0.1489  0.1928  0.0534
    1DPPC   C3A  487   5.612  22.456   4.660 -0.0053  0.0719  0.0613
    1DPPC   C4A  488   5.586  22.362   4.185 -0.2453  0.0324  0.1457
    1DPPC   C1B  489   6.077  22.043   5.220  0.1591  0.1093  0.0872
    1DPPC   C2B  490   6.013  21.986   4.773  0.0304 -0.0805  0.0591
    1DPPC   C3B  491   5.844  21.938   4.370 -0.0140 -0.0442 -0.0138
    1DPPC   C4B  492   5.530  21.855   4.042  0.0243 -0.0757  0.0579
    1DPPC   NC3  493  29.271  11.317   6.690  0.1730 -0.1068 -0.1969
    1DPPC   PO4  494  28.983  11.452   6.315 -0.1062 -0.0732  0.1092
    1DPPC   GL1  495  29.086  11.411   6.013  0.0898 -0.0673  0.1649
    1DPPC   GL2  496  29.345  11.594   6.046 -0.1270  0.0696  0.0163
    1DPPC   C1A  497  29.294  11.484   5.547  0.0143  0.5580  0.5561
    1DPPC   C2A  498  29.393  11.496   5.139  0.0537 -0.1892 -0.1453
    1DPPC   C3A  499  29.577  11.647   4.775 -0.0868 -0.2544  0.3907
    1DPPC   C4A  500  29.656  11.618   4.255 -0.0102  0.1682 -0.2426
    1DPPC   C1B  501  29.271  12.018   5.713  0.0259  0.2295 -0.3078
    1DPPC   C2B  502  29.194  12.082   5.345  0.0656  0.4010 -0.0509
    1DPPC   C3B  503  29.252  11.953   4.939 -0.2139 -0.1303  0.1539
    1DPPC   C4B  504  29.213  11.925   4.481  0.0523 -0.3559 -0.1300
    1DPPC   NC3  505   1.481  22.908   6.965 -0.3287  0.1448 -0.0780
    1DPPC   PO4  506   1.529  23.391   6.965 -0.4018  0.1045 -0.0875
    1DPPC   GL1  507   1.579  23.460   6.590 -0.1248 -0.3749  0.1251
    1DPPC   GL2  508   1.633  23.694   6.528 -0.2076 -0.1760  0.2646
    1DPPC   C1A  509   1.512  23.410   6.155 -0.1129  0.1046 -0.0091
    1DPPC   C2A  510   1.435  23.511   5.804  0.0117 -0.2400  0.0307
    1DPPC   C3A  511   1.442  23.789   5.428 -0.0226 -0.2885 -0.0040
    1DPPC   C4A  512   1.502  23.969   4.915 -0.0889  0.0593 -0.1825
    1DPPC   C1B  513   1.834  23.933   6.291 -0.0702 -0.0121  0.1327
    1DPPC   C2B  514   1.852  23.917   5.872  0.1977 -0.0973  0.3436
    1DPPC   C3B  515   1.896  23.970   5.442  0.0741 -0.0225  0.0098
    1DPPC   C4B  516   1.962  24.144   4.978  0.0123 -0.2701  0.2596
    1DPPC   NC3  517   2.946  23.160   6.934  0.1399 -0.0531 -0.1871
    1DPPC   PO4  518   3.076  23.524   6.848 -0.0367 -0.2653 -0.1328
    1DPPC   GL1  519   3.146  23.367   6.442  0.1261 -0.1425  0.2973
    1DPPC   GL2  520   2.849  23.222   6.383 -0.1164  0.1274  0.1234
    1DPPC   C1A  521   3.319  23.444   5.965  0.2253  0.4404 -0.3488
    1DPPC   C2A  522   3.248  23.528   5.634  0.0081  0.0958 -0.0348
    1DPPC   C3A  523   3.289  23.852   5.309 -0.2470  0.1263 -0.3765
    1DPPC   C4A  524   3.188  24.131   4.923 -0.0505 -0.2307 -0.1189
    1DPPC   C1B  525   2.834  23.165   5.976  0.2072  0.1106 -0.0527
    1DPPC   C2B  526   2.787  23.218   5.560  0.1298 -0.1876 -0.0792
    1DPPC   C3B  527   2.653  23.513   5.277 -0.1741 -0.1857  0.2203
    1DPPC   C4B  528   2.934  23.726   5.035  0.1043  0.2758  0.0753
    1DPPC   NC3  529  26.281  10.850   6.171 -0.3384 -0.3953  0.2080
    1DPPC   PO4  530  26.646  10.759   6.213 -0.4337 -0.0562 -0.3281
    1DPPC   GL1  531  26.541  10.731   5.765 -0.2482  0.0360  0.0794
    1DPPC   GL2  532  26.451  11.023   5.493  0.0846 -0.1567 -0.1722
    1DPPC   C1A  533  26.874  10.762   5.459 -0.0446  0.2293 -0.1382
    1DPPC   C2A  534  26.990  10.823   5.052 -0.1114 -0.1565  0.1550
    1DPPC   C3A  535  27.029  10.902   4.709  0.3170 -0.2007  0.1190
    1DPPC   C4A  536  26.998  11.181   4.331 -0.1351  0.0550  0.0459
    1DPPC   C1B  537  26.563  11.061   4.989  0.3669 -0.4160  0.2099
    1DPPC   C2B  538  26.527  11.036   4.575 -0.1904  0.1624  0.1590
    1DPPC   C3B  539  26.391  11.311   4.261 -0.3793  0.2201  0.0644
    1DPPC   C4B  540  25.915  11.333   4.186 -0.0815 -0.1240 -0.0624
    1DPPC   NC3  541  26.358  23.969   6.464  0.1777 -0.0261 -0.0681
    1DPPC   PO4  542  26.388  23.559   6.473 -0.0752 -0.2606 -0.0370
    1DPPC   GL1  543  26.291  23.447   6.067  0.1592  0.0807  0.0352
    1DPPC   GL2  544  26.343  23.721   5.894 -0.0681 -0.0371 -0.1590
    1DPPC   C1A  545  26.311  23.015   5.788  0.3355 -0.1422 -0.1162
    1DPPC   C2A  546  26.365  23.069   5.333  0.0764  0.2165 -0.2910
    1DPPC   C3A  547  26.541  23.142   4.888 -0.1488  0.0710  0.1008
    1DPPC   C4A  548  26.771  23.394   4.553 -0.1487 -0.0839 -0.0515
    1DPPC   C1B  549  26.291  23.544   5.492  0.2351  0.2054  0.0693
    1DPPC   C2B  550  26.291  23.524   5.122 -0.1902 -0.4482  0.0484
    1DPPC   C3B  551  26.303  23.598   4.616  0.2516  0.3543 -0.2177
    1DPPC   C4B  552  26.447  23.445   4.182  0.1671  0.2424  0.2170
    1DPPC   NC3  553   2.660  10.959   7.137 -0.1156 -0.0401 -0.1015
    1DPPC   PO4  554   2.542  11.152   6.698  0.0382 -0.3982  0.1885
    1DPPC   GL1  555   2.332  11.242   6.307  0.2723 -0.1354  0.0560
    1DPPC   GL2  556   2.203  10.874   6.251  0.1727  0.0435  0.1675
    1DPPC   C1A  557   2.478  11.487   5.965  0.2255  0.1178  0.0002
    1DPPC   C2A  558   2.513  11.509   5.597  0.1279 -0.0551  0.1751
    1DPPC   C3A  559   2.648  11.349   5.262  0.1760 -0.3260 -0.2520
    1DPPC   C4A  560   2.654  11.522   4.859  0.0805  0.3138 -0.1609
    1DPPC   C1B  561   2.397  11.027   5.842  0.2033  0.2943  0.0928
    1DPPC   C2B  562   2.456  10.919   5.520  0.0369 -0.1454  0.1430
    1DPPC   C3B  563   2.495  10.810   5.106 -0.2620 -0.0964 -0.1248
    1DPPC   C4B  564   2.902  10.871   4.875  0.0605  0.0767  0.1021
    1DPPC   NC3  565  28.104  19.187   6.057  0.0264 -0.1366 -0.2478
    1DPPC   PO4  566  27.686  18.923   5.944 -0.0095 -0.1327 -0.0596
    1DPPC   GL1  567  27.805  18.949   5.461  0.1385  0.1693  0.0200
    1DPPC   GL2  568  27.505  18.802   5.340  0.0208  0.1504  0.3567
    1DPPC   C1A  569  27.858  18.877   4.964  0.2192  0.0306  0.0884
    1DPPC   C2A  570  27.841  18.789   4.545 -0.1432  0.1229  0.0206
    1DPPC   C3A  571  27.645  18.557   4.170 -0.2159 -0.1454  0.1739
    1DPPC   C4A  572  27.422  18.434   3.817 -0.2993 -0.2159 -0.1800
    1DPPC   C1B  573  27.365  19.145   5.169 -0.0326  0.3822  0.2030
    1DPPC   C2B  574  27.712  19.330   5.045 -0.3975 -0.2139  0.3171
    1DPPC   C3B  575  27.752  19.290   4.634  0.2325  0.2505 -0.0768
    1DPPC   C4B  576  27.732  19.154   4.243  0.0745  0.0175 -0.1806
    1DPPC   NC3  577   3.796  19.944   6.297  0.3523 -0.0361  0.2020
    1DPPC   PO4  578   4.047  20.033   5.977  0.1925  0.0810 -0.0243
    1DPPC   GL1  579   3.956  19.972   5.608  0.0444 -0.0024 -0.1512
    1DPPC   GL2  580   3.893  20.297   5.520  0.2488  0.1090  0.0226
    1DPPC   C1A  581   3.923  19.682   5.284 -0.3060 -0.0334 -0.1306
    1DPPC   C2A  582   3.963  19.762   4.840  0.3267 -0.0771  0.3349
    1DPPC   C3A  583   4.123  19.838   4.400  0.1206 -0.1090 -0.0511
    1DPPC   C4A  584   4.447  19.829   4.246  0.1464 -0.1322  0.0711
    1DPPC   C1B  585   3.800  20.136   5.157 -0.0329 -0.0742  0.0812
    1DPPC   C2B  586   3.886  20.224   4.716 -0.1274  0.0780  0.1760
    1DPPC   C3B  587   3.826  20.304   4.295  0.1913  0.0069  0.0094
    1DPPC   C4B  588   4.050  20.158   4.019 -0.0298 -0.0584  0.2709
    1DPPC   NC3  589  29.307  20.828   6.532  0.1500  0.3018  0.1354
    1DPPC   PO4  590  29.568  20.502   6.456 -0.2546 -0.1845 -0.1564
    1DPPC   GL1  591  29.457  20.648   6.078  0.1360  0.1159 -0.0339
    1DPPC   GL2  592  29.167  20.544   5.879 -0.0343  0.0994 -0.0282
    1DPPC   C1A  593  29.551  20.468   5.561 -0.1612  0.1682  0.0894
    1DPPC   C2A  594  29.532  20.467   5.114  0.3782  0.0469  0.0257
    1DPPC   C3A  595  29.597  20.445   4.683  0.2070 -0.2422  0.1286
    1DPPC   C4A  596  29.770  20.291   4.319 -0.0317  0.0761 -0.1340
    1DPPC   C1B  597  29.097  20.683   5.489  0.1014  0.0775  0.0685
    1DPPC   C2B  598  29.076  20.745   5.051  0.2647  0.2574 -0.0593
    1DPPC   C3B  599  29.260  20.801   4.678 -0.0552  0.0418  0.0758
    1DPPC   C4B  600  29.126  20.888   4.340 -0.0609 -0.0866  0.0185
    1DPPC   NC3  601   4.095   6.009   6.928 -0.0813 -0.1065  0.1369
    1DPPC   PO4  602   3.655   6.195   7.012 -0.0035 -0.4422 -0.0376
    1DPPC   GL1  603   3.788   6.274   6.562 -0.0693  0.1899 -0.2916
    1DPPC   GL2  604   3.995   6.089   6.376  0.0415 -0.3111 -0.0136
    1DPPC   C1A  605   3.816   6.423   6.086  0.0639 -0.0004  0.1084
    1DPPC   C2A  606   3.762   6.421   5.645  0.0258  0.2316 -0.0896
    1DPPC   C3A  607   3.910   6.531   5.297 -0.1345  0.2602 -0.1532
    1DPPC   C4A  608   4.138   6.635   5.024  0.0969  0.0475  0.1332
    1DPPC   C1B  609   4.249   6.258   6.024 -0.2750  0.3370  0.0491
    1DPPC   C2B  610   4.365   6.448   5.605  0.0389  0.0081  0.1142
    1DPPC   C3B  611   4.399   6.302   5.264  0.0774 -0.0893 -0.3898
    1DPPC   C4B  612   4.409   5.902   5.076  0.1224 -0.0034 -0.0448
    1DPPC   NC3  613  30.165  12.986   6.711  0.2545 -0.1587 -0.2098
    1DPPC   PO4  614  29.901  12.827   6.346  0.0435 -0.1246  0.1289
    1DPPC   GL1  615  29.965  12.576   5.961 -0.0684 -0.1455 -0.1003
    1DPPC   GL2  616  30.024  12.298   6.086  0.4075  0.3338 -0.2623
    1DPPC   C1A  617  30.089  12.542   5.503 -0.2814 -0.1298 -0.0528
    1DPPC   C2A  618  30.095  12.314   5.235 -0.1505  0.0380 -0.0996
    1DPPC   C3A  619  30.147  12.453   4.928  0.1881 -0.2440  0.1583
    1DPPC   C4A  620  30.152  12.344   4.575 -0.0167 -0.1995  0.0125
    1DPPC   C1B  621  30.260  12.096   5.780 -0.2310  0.1140  0.1017
    1DPPC   C2B  622   0.031  11.952   5.374 -0.0507  0.3412  0.0612
    1DPPC   C3B  623   0.092  11.966   4.870  0.2013 -0.0091  0.0783
    1DPPC   C4B  624   0.184  11.935   4.390  0.0499 -0.3298  0.1023
    1DPPC   NC3  625   2.563  23.404   6.732  0.3193 -0.0082  0.1650
    1DPPC   PO4  626   2.237  23.301   6.850 -0.1951 -0.0432  0.0167
    1DPPC   GL1  627   2.090  23.419   6.471 -0.3710 -0.0039  0.1029
    1DPPC   GL2  628   2.372  23.360   6.241  0.0467  0.0441 -0.0542
    1DPPC   C1A  629   1.970  23.498   5.990 -0.0094  0.2377  0.2251
    1DPPC   C2A  630   1.888  23.495   5.503  0.1322 -0.0937  0.1713
    1DPPC   C3A  631   2.104  23.629   4.984  0.0406 -0.0259 -0.0468
    1DPPC   C4A  632   1.877  23.722   4.696  0.0668 -0.1099 -0.0354
    1DPPC   C1B  633   2.385  23.529   5.715 -0.0358 -0.1797  0.0501
    1DPPC   C2B  634   2.354  23.856   5.399 -0.0510  0.2295  0.0622
    1DPPC   C3B  635   2.479  24.125   5.073  0.0236  0.2803  0.2239
    1DPPC   C4B  636   2.324  24.538   4.968  0.0431 -0.0985  0.2061
    1DPPC   NC3  637  11.617  25.600   6.153  0.1468 -0.1277  0.1876
    1DPPC   PO4  638  11.715  25.120   6.180 -0.0801  0.2739  0.0458
    1DPPC   GL1  639  11.687  25.229   5.697 -0.0953 -0.0347 -0.2613
    1DPPC   GL2  640  11.503  25.000   5.558 -0.1195  0.1040  0.0218
    1DPPC   C1A  641  11.767  25.347   5.302 -0.1946 -0.5859 -0.0695
    1DPPC   C2A  642  11.869  25.422   4.864  0.1954  0.1647 -0.1675
    1DPPC   C3A  643  12.072  25.687   4.556  0.1664  0.0107 -0.1835
    1DPPC   C4A  644  12.380  26.021   4.519  0.2472 -0.0834  0.1261
    1DPPC   C1B  645  11.484  24.596   5.272  0.0512  0.0568 -0.2302
    1DPPC   C2B  646  11.757  24.306   5.079 -0.3321 -0.0799 -0.0184
    1DPPC   C3B  647  11.866  24.004   4.827  0.0831 -0.1927 -0.4261
    1DPPC   C4B  648  11.701  23.675   4.554 -0.1818 -0.1515  0.1371
    1DPPC   NC3  649   1.487  18.871   6.183  0.0251 -0.1044  0.1167
    1DPPC   PO4  650   1.533  19.311   6.310 -0.1080  0.2348 -0.0469
    1DPPC   GL1  651   1.584  19.220   5.867 -0.0794  0.1516 -0.2641
    1DPPC   GL2  652   1.765  19.428   5.795 -0.1285  0.3276 -0.0887
    1DPPC   C1A  653   1.332  19.205   5.587 -0.2768 -0.0302  0.1361
    1DPPC   C2A  654   1.493  19.128   5.203  0.2462 -0.0815  0.0915
    1DPPC   C3A  655   1.450  19.226   4.713  0.0478  0.1650 -0.0827
    1DPPC   C4A  656   1.606  19.169   4.211 -0.0590  0.0127  0.0174
    1DPPC   C1B  657   1.838  19.494   5.375  0.2410  0.2969  0.0633
    1DPPC   C2B  658   1.874  19.456   4.916 -0.3636  0.0874 -0.2343
    1DPPC   C3B  659   1.827  19.538   4.429 -0.1047 -0.1942 -0.3300
    1DPPC   C4B  660   1.921  19.445   3.952 -0.0856 -0.1020 -0.2339
    1DPPC   NC3  661  30.270  23.423   7.061 -0.1533 -0.0556 -0.2614
    1DPPC   PO4  662  29.951  23.389   6.748  0.3539 -0.0022 -0.2083
    1DPPC   GL1  663  30.242  23.396   6.468 -0.4692  0.0753  0.1168
    1DPPC   GL2  664   0.232  23.579   6.605  0.1320  0.0568  0.1729
    1DPPC   C1A  665  30.307  23.183   5.981  0.0991 -0.2543 -0.0847
    1DPPC   C2A  666  30.346  23.325   5.500  0.1138  0.0232  0.1359
    1DPPC   C3A  667   0.084  23.221   5.032  0.2937  0.3347 -0.0252
    1DPPC   C4A  668   0.101  23.289   4.515  0.0844  0.0694 -0.1230
    1DPPC   C1B  669   0.313  23.827   6.310  0.1532  0.0762 -0.0359
    1DPPC   C2B  670   0.620  23.794   6.088  0.3113  0.0053  0.1938
    1DPPC   C3B  671   0.622  23.953   5.776 -0.2029  0.0461  0.1123
    1DPPC   C4B  672   0.632  23.868   5.316  0.2675  0.2690 -0.2226
    1DPPC   NC3  673   4.150  22.646   6.723  0.1695  0.0028 -0.1664
    1DPPC   PO4  674   4.402  22.351   6.451 -0.3022 -0.2173  0.0672
    1DPPC   GL1  675   4.476  22.503   6.024  0.1709  0.1559 -0.1684
    1DPPC   GL2  676   4.716  22.617   5.839 -0.0576  0.3718 -0.0065
    1DPPC   C1A  677   4.257  22.604   5.626  0.0023 -0.1438  0.0528
    1DPPC   C2A  678   4.332  22.719   5.246 -0.1341  0.0755 -0.0522
    1DPPC   C3A  679   4.493  23.026   5.041  0.2678  0.2643 -0.0615
    1DPPC   C4A  680   4.489  23.470   4.916  0.2619 -0.0423 -0.0085
    1DPPC   C1B  681   4.771  22.746   5.458  0.0076  0.1024 -0.2573
    1DPPC   C2B  682   4.896  22.809   4.990 -0.0531  0.0587  0.0429
    1DPPC   C3B  683   4.893  22.920   4.666  0.0104  0.2557 -0.1018
    1DPPC   C4B  684   4.992  23.121   4.221 -0.0604 -0.1653 -0.3165
    1DPPC   NC3  685   3.932   9.033   6.625  0.0428 -0.3139 -0.1991
    1DPPC   PO4  686   3.975   8.682   6.258  0.1553  0.3940 -0.0311
    1DPPC   GL1  687   3.917   8.784   5.830 -0.2505 -0.0620 -0.1183
    1DPPC   GL2  688   4.155   8.833   5.767  0.0376 -0.0733  0.2324
    1DPPC   C1A  689   3.616   8.667   5.560 -0.0411  0.1334 -0.2234
    1DPPC   C2A  690   3.565   8.634   5.109 -0.1767 -0.1488 -0.0504
    1DPPC   C3A  691   3.440   8.275   4.896 -0.0435  0.0651  0.1959
    1DPPC   C4A  692   3.183   8.066   4.607 -0.2029 -0.1123  0.0525
    1DPPC   C1B  693   4.001   8.971   5.327 -0.2744 -0.2934 -0.0774
    1DPPC   C2B  694   4.015   8.962   4.956  0.1211 -0.3847  0.2817
    1DPPC   C3B  695   4.177   8.942   4.536 -0.2238  0.0384  0.2501
    1DPPC   C4B  696   4.018   8.762   4.117  0.1067 -0.0849  0.0428
    1DPPC   NC3  697   0.671   5.968   6.872  0.2689 -0.0966 -0.1687
    1DPPC   PO4  698   1.043   6.078   6.751 -0.0202  0.1752  0.2392
    1DPPC   GL1  699   1.032   6.131   6.257 -0.0424 -0.1619 -0.0536
    1DPPC   GL2  700   1.259   6.256   6.120 -0.1794 -0.1354  0.0853
    1DPPC   C1A  701   0.762   5.935   5.948 -0.0791 -0.2319  0.1996
    1DPPC   C2A  702   0.417   5.887   5.527  0.3238  0.2019 -0.2061
    1DPPC   C3A  703   0.332   6.226   5.252 -0.1673 -0.0414  0.0487
    1DPPC   C4A  704   0.070   6.548   5.232  0.0055  0.4216  0.0930
    1DPPC   C1B  705   1.178   6.035   5.757  0.0305 -0.1755  0.2075
    1DPPC   C2B  706   0.906   6.019   5.388 -0.0009 -0.0923 -0.1034
    1DPPC   C3B  707   0.745   5.929   5.085 -0.1947  0.0194 -0.0713
    1DPPC   C4B  708   0.585   6.080   4.813  0.2843 -0.2093  0.0064
    1DPPC   NC3  709   2.044  16.030   6.697 -0.0075 -0.2122 -0.3609
    1DPPC   PO4  710   1.693  15.966   6.372 -0.1758  0.3303 -0.0412
    1DPPC   GL1  711   1.502  16.009   6.067 -0.0337  0.1390  0.2050
    1DPPC   GL2  712   1.305  15.713   6.113 -0.1539  0.1018 -0.3578
    1DPPC   C1A  713   1.486  15.878   5.689  0.2069 -0.1383  0.0926
    1DPPC   C2A  714   1.430  15.923   5.285 -0.0325  0.0702  0.0942
    1DPPC   C3A  715   1.429  15.929   4.858  0.0813  0.1947  0.1452
    1DPPC   C4A  716   1.383  16.074   4.446 -0.0687  0.0439 -0.0031
    1DPPC   C1B  717   0.968  15.739   5.780 -0.0914  0.3084 -0.1092
    1DPPC   C2B  718   0.978  15.761   5.235  0.0150  0.1076  0.0412
    1DPPC   C3B  719   0.991  15.706   4.757  0.0832  0.5078 -0.1550
    1DPPC   C4B  720   1.068  15.609   4.386  0.0675  0.0189 -0.0592
    1DPPC   NC3  721   0.425  12.316   6.649  0.0305 -0.0373  0.1730
    1DPPC   PO4  722   0.697  11.990   6.589 -0.0390  0.3899  0.0275
    1DPPC   GL1  723   0.621  11.824   6.278  0.0597 -0.0993  0.2399
    1DPPC   GL2  724   0.816  11.781   6.072 -0.0427 -0.0659  0.0745
    1DPPC   C1A  725   0.331  11.618   5.992  0.0925 -0.0436  0.0429
    1DPPC   C2A  726   0.493  11.448   5.638  0.2389  0.0163 -0.0418
    1DPPC   C3A  727   0.782  11.435   5.219  0.0425  0.0817 -0.3047
    1DPPC   C4A  728   0.837  11.279   4.744  0.1504  0.2147  0.0867
    1DPPC   C1B  729   0.888  11.501   5.924 -0.0983  0.1688 -0.1575
    1DPPC   C2B  730   0.993  11.231   5.602 -0.2895  0.3326 -0.3067
    1DPPC   C3B  731   1.024  10.990   5.238 -0.1993 -0.1313 -0.0483
    1DPPC   C4B  732   0.755  10.561   5.136 -0.1091  0.0568  0.0245
    1DPPC   NC3  733  28.740  23.260   6.496 -0.0071  0.1074 -0.5275
    1DPPC   PO4  734  29.023  23.576   6.663  0.1937  0.1162 -0.0664
    1DPPC   GL1  735  29.260  23.302   6.482 -0.1349  0.2184  0.1426
    1DPPC   GL2  736  29.495  23.546   6.314 -0.1885 -0.2275 -0.0547
    1DPPC   C1A  737  29.380  23.043   6.130 -0.0915  0.0151 -0.0584
    1DPPC   C2A  738  29.423  23.045   5.592  0.1262  0.0045 -0.1830
    1DPPC   C3A  739  29.532  23.310   5.218  0.2243  0.0711  0.1828
    1DPPC   C4A  740  29.601  23.525   4.860  0.1414  0.3348 -0.0708
    1DPPC   C1B  741  29.277  23.480   5.943 -0.2522  0.0332  0.2937
    1DPPC   C2B  742  29.324  23.591   5.618 -0.0040  0.0698  0.0774
    1DPPC   C3B  743  29.573  23.845   5.248  0.1255 -0.1715  0.0481
    1DPPC   C4B  744  29.893  24.068   4.995 -0.0224 -0.2690 -0.1295
    1DPPC   NC3  745   6.766  21.123   5.690 -0.0128 -0.1171  0.2808
    1DPPC   PO4  746   6.506  20.707   5.546 -0.0586 -0.0242  0.1814
    1DPPC   GL1  747   6.534  20.504   5.175  0.1087  0.1679 -0.0921
    1DPPC   GL2  748   6.469  20.223   5.264  0.1222 -0.0767  0.1741
    1DPPC   C1A  749   6.581  20.561   4.688 -0.0108  0.2338  0.0010
    1DPPC   C2A  750   6.707  20.652   4.276  0.1001 -0.1405  0.4358
    1DPPC   C3A  751   6.698  20.732   3.802 -0.0727 -0.0791  0.2311
    1DPPC   C4A  752   7.004  20.721   3.490  0.1451  0.3960  0.0112
    1DPPC   C1B  753   6.367  20.158   4.819  0.0113 -0.1951 -0.1668
    1DPPC   C2B  754   6.439  20.123   4.345 -0.0327  0.1447  0.2111
    1DPPC   C3B  755   6.265  20.129   3.937  0.0273 -0.1146 -0.0170
    1DPPC   C4B  756   6.183  20.027   3.495  0.1580 -0.2167 -0.1823
    1DPPC   NC3  757  27.538  20.738   6.392  0.1023  0.2216 -0.0965
    1DPPC   PO4  758  27.917  21.041   6.534 -0.0265 -0.0125  0.0629
    1DPPC   GL1  759  27.854  21.009   6.099  0.1640 -0.0802 -0.3305
    1DPPC   GL2  760  28.137  20.898   5.898 -0.2373 -0.1328 -0.2432
    1DPPC   C1A  761  27.730  21.054   5.692  0.1974  0.1683 -0.1355
    1DPPC   C2A  762  27.702  21.227   5.241  0.3098 -0.2386  0.1410
    1DPPC   C3A  763  27.853  21.482   4.899 -0.0641 -0.2231 -0.0089
    1DPPC   C4A  764  28.026  21.685   4.504  0.1470 -0.2545  0.2772
    1DPPC   C1B  765  28.134  20.967   5.429  0.3447 -0.1445 -0.0656
    1DPPC   C2B  766  28.217  21.113   4.977 -0.0854 -0.0430 -0.0395
    1DPPC   C3B  767  28.432  21.365   4.630  0.1009 -0.1907  0.1573
    1DPPC   C4B  768  28.553  21.677   4.285  0.2262 -0.2242 -0.0808
    1DPPC   NC3  769   5.276  20.253   6.467 -0.2269 -0.2623 -0.0119
    1DPPC   PO4  770   5.212  20.600   6.173 -0.0818  0.0707 -0.1685
    1DPPC   GL1  771   5.309  20.434   5.785 -0.2204 -0.2046  0.1136
    1DPPC   GL2  772   5.611  20.428   5.646 -0.0690 -0.2527  0.3925
    1DPPC   C1A  773   5.154  20.249   5.412 -0.0491 -0.1170 -0.0146
    1DPPC   C2A  774   4.950  20.312   4.891 -0.0216 -0.1188  0.0464
    1DPPC   C3A  775   5.128  20.537   4.398  0.0549 -0.3964 -0.0409
    1DPPC   C4A  776   5.367  20.514   3.930 -0.1561 -0.0796 -0.4457
    1DPPC   C1B  777   5.552  20.514   5.204  0.1185 -0.1820 -0.0877
    1DPPC   C2B  778   5.592  20.460   4.782  0.0242 -0.0076  0.0181
    1DPPC   C3B  779   5.636  20.462   4.378 -0.0478 -0.2337  0.0795
    1DPPC   C4B  780   5.869  20.430   3.993  0.1384 -0.1304  0.1234
    1DPPC   NC3  781  10.530  11.423   6.763  0.1053 -0.0925 -0.1768
    1DPPC   PO4  782  10.629  11.071   7.029 -0.0862 -0.1389 -0.3171
    1DPPC   GL1  783  10.600  11.043   6.465  0.0282 -0.0568 -0.0139
    1DPPC   GL2  784  10.242  11.097   6.243 -0.1293 -0.0427 -0.2548
    1DPPC   C1A  785  10.947  11.188   6.140  0.0054 -0.1144 -0.0788
    1DPPC   C2A  786  11.175  10.915   5.794  0.0805  0.1762 -0.0663
    1DPPC   C3A  787  11.264  10.751   5.339 -0.0313  0.1004  0.1902
    1DPPC   C4A  788  11.182  10.588   4.834 -0.1378  0.0969  0.1129
    1DPPC   C1B  789  10.528  10.832   5.999  0.1994 -0.1483 -0.0009
    1DPPC   C2B  790  10.351  10.557   5.765 -0.1125  0.0356  0.0146
    1DPPC   C3B  791  10.356  10.535   5.333 -0.2387 -0.2472  0.1139
    1DPPC   C4B  792  10.680  10.512   4.914 -0.3562  0.2424  0.1187
    1DPPC   NC3  793   3.716  19.177   6.089 -0.0473  0.0193  0.0037
    1DPPC   PO4  794   3.621  19.602   5.949  0.1456  0.0683  0.1926
    1DPPC   GL1  795   3.784  19.273   5.605  0.1016  0.0108  0.3114
    1DPPC   GL2  796   3.941  19.215   5.469 -0.0269 -0.1399 -0.0042
    1DPPC   C1A  797   3.575  18.992   5.257 -0.2035  0.5679  0.0224
    1DPPC   C2A  798   3.640  18.938   4.845 -0.0627  0.0693 -0.0032
    1DPPC   C3A  799   3.738  18.982   4.294 -0.1709 -0.2851  0.3013
    1DPPC   C4A  800   3.955  18.895   4.003 -0.4169 -0.2226  0.2006
    1DPPC   C1B  801   3.948  19.277   5.041 -0.3339  0.2178  0.0141
    1DPPC   C2B  802   3.939  19.344   4.611  0.1078 -0.0389 -0.0587
    1DPPC   C3B  803   4.155  19.295   4.299 -0.0538  0.1010 -0.0700
    1DPPC   C4B  804   4.369  19.437   3.959  0.0788 -0.0141  0.2395
    1DPPC   NC3  805  26.881  16.548   6.626  0.0785  0.0472  0.1476
    1DPPC   PO4  806  27.019  16.614   6.253 -0.1904  0.5861  0.1033
    1DPPC   GL1  807  27.046  16.683   5.817  0.0384 -0.1336  0.0181
    1DPPC   GL2  808  27.157  16.971   5.664  0.0353 -0.1899 -0.4031
    1DPPC   C1A  809  27.137  16.577   5.403  0.1038 -0.0078  0.0451
    1DPPC   C2A  810  27.115  16.376   5.060 -0.0496 -0.0967 -0.0108
    1DPPC   C3A  811  27.248  16.249   4.608 -0.1012  0.3409  0.1524
    1DPPC   C4A  812  27.362  16.067   4.218 -0.2398  0.0116 -0.0735
    1DPPC   C1B  813  26.933  17.026   5.260 -0.4498 -0.0641 -0.0475
    1DPPC   C2B  814  26.877  17.066   4.846 -0.0507  0.2016  0.1021
    1DPPC   C3B  815  27.099  17.072   4.431  0.0281 -0.0596 -0.1812
    1DPPC   C4B  816  26.976  16.995   3.966 -0.0820  0.3155 -0.0115
    1DPPC   NC3  817   7.270  21.051   6.100 -0.1442 -0.3112  0.2120
    1DPPC   PO4  818   7.247  21.264   5.767 -0.1348  0.0510  0.1116
    1DPPC   GL1  819   7.269  21.126   5.394  0.0126  0.1171  0.2362
    1DPPC   GL2  820   7.384  20.902   5.379  0.2210  0.0870  0.1050
    1DPPC   C1A  821   7.116  21.291   4.947 -0.3222 -0.1557 -0.0677
    1DPPC   C2A  822   6.910  21.475   4.605  0.0213 -0.1367  0.2449
    1DPPC   C3A  823   6.749  21.624   4.199 -0.0129 -0.3293  0.2786
    1DPPC   C4A  824   6.956  21.663   3.826 -0.1837  0.0276  0.1062
    1DPPC   C1B  825   7.017  20.766   4.984 -0.1850 -0.2914  0.1943
    1DPPC   C2B  826   6.934  20.964   4.580 -0.0637  0.1622 -0.2145
    1DPPC   C3B  827   6.934  21.140   4.159  0.1113 -0.1397 -0.2756
    1DPPC   C4B  828   6.880  21.182   3.744 -0.2485  0.1227  0.1335
    1DPPC   NC3  829   9.074  13.782   7.407  0.3135 -0.0182  0.0777
    1DPPC   PO4  830   9.220  14.133   7.073 -0.0604  0.2078  0.0594
    1DPPC   GL1  831   9.315  14.085   6.665  0.1996  0.2410  0.0455
    1DPPC   GL2  832   9.510  14.355   6.565 -0.0670 -0.1244 -0.0402
    1DPPC   C1A  833   8.972  13.799   6.367  0.0068  0.3977  0.1402
    1DPPC   C2A  834   8.944  13.542   5.904  0.0676  0.0065  0.2305
    1DPPC   C3A  835   8.950  13.440   5.473  0.0321  0.0631 -0.1063
    1DPPC   C4A  836   8.702  13.181   5.129  0.0969  0.2503  0.4351
    1DPPC   C1B  837   9.212  14.219   6.187 -0.2338 -0.0051  0.0500
    1DPPC   C2B  838   9.038  14.164   5.867  0.3512  0.1566 -0.0559
    1DPPC   C3B  839   8.942  13.909   5.581 -0.0034 -0.0642  0.2499
    1DPPC   C4B  840   9.055  13.925   5.234 -0.2601 -0.0784 -0.3214
    1DPPC   NC3  841   2.217  15.359   6.183  0.2216 -0.0468  0.0423
    1DPPC   PO4  842   2.623  15.241   6.385 -0.3772 -0.0178  0.1960
    1DPPC   GL1  843   2.627  15.155   5.954  0.2307  0.1670 -0.0452
    1DPPC   GL2  844   2.794  14.834   5.778 -0.2311  0.0548 -0.0966
    1DPPC   C1A  845   2.659  15.293   5.455 -0.4414  0.0139  0.1361
    1DPPC   C2A  846   2.638  15.218   4.988 -0.0749  0.2086  0.3162
    1DPPC   C3A  847   2.633  15.344   4.539 -0.1554 -0.2190 -0.1474
    1DPPC   C4A  848   2.611  15.147   4.132  0.0487  0.0165 -0.0440
    1DPPC   C1B  849   2.648  14.770   5.410 -0.2714 -0.2060 -0.2908
    1DPPC   C2B  850   2.629  14.729   4.994 -0.1558  0.2703 -0.1080
    1DPPC   C3B  851   2.651  14.788   4.479  0.1140 -0.0746  0.0139
    1DPPC   C4B  852   2.351  14.717   4.118  0.0752 -0.1878 -0.0760
    1DPPC   NC3  853   4.745  17.399   6.404 -0.0105  0.0648  0.2244
    1DPPC   PO4  854   5.177  17.207   6.327  0.1713 -0.0550  0.0041
    1DPPC   GL1  855   5.347  17.077   5.984 -0.3840 -0.2678 -0.3886
    1DPPC   GL2  856   5.336  17.359   5.824  0.0730 -0.0470 -0.0862
    1DPPC   C1A  857   5.561  17.016   5.541 -0.1449  0.1051  0.2493
    1DPPC   C2A  858   5.665  16.974   5.143 -0.1344 -0.1381 -0.0414
    1DPPC   C3A  859   5.417  16.744   4.808 -0.1381  0.1290  0.0517
    1DPPC   C4A  860   5.249  16.767   4.364 -0.0404 -0.1016 -0.1149
    1DPPC   C1B  861   5.331  17.454   5.442 -0.3884 -0.0086 -0.2399
    1DPPC   C2B  862   5.348  17.398   5.018  0.2376 -0.1270 -0.1825
    1DPPC   C3B  863   5.350  17.187   4.637  0.1142  0.0772  0.1024
    1DPPC   C4B  864   5.760  17.052   4.425 -0.0975  0.1040  0.4401
    1DPPC   NC3  865  10.039  15.509   6.522  0.0562 -0.1317 -0.6863
    1DPPC   PO4  866   9.610  15.785   6.421  0.1142  0.2651 -0.1203
    1DPPC   GL1  867   9.866  15.685   6.007 -0.0842  0.2022  0.0041
    1DPPC   GL2  868  10.140  15.479   6.073 -0.1598  0.1170 -0.0761
    1DPPC   C1A  869  10.016  15.808   5.597 -0.1118 -0.1973  0.3505
    1DPPC   C2A  870  10.144  15.637   5.262  0.0550  0.1161  0.0646
    1DPPC   C3A  871  10.187  15.341   4.894  0.0773 -0.1366 -0.1966
    1DPPC   C4A  872   9.961  15.147   4.533 -0.0586 -0.1510 -0.0162
    1DPPC   C1B  873  10.399  15.449   5.737 -0.1487 -0.0064  0.2225
    1DPPC   C2B  874  10.723  15.291   5.552  0.1863  0.0615 -0.0336
    1DPPC   C3B  875  10.864  14.950   5.403  0.1202  0.2544 -0.3239
    1DPPC   C4B  876  10.783  14.521   5.306 -0.1683  0.4135  0.1101
    1DPPC   NC3  877  28.483  11.855   6.464 -0.2591 -0.1147 -0.1444
    1DPPC   PO4  878  28.092  12.071   6.690  0.0079 -0.0436  0.0259
    1DPPC   GL1  879  28.114  12.181   6.283  0.0706  0.0601  0.2156
    1DPPC   GL2  880  28.011  12.526   6.283 -0.1816  0.0414 -0.0148
    1DPPC   C1A  881  28.343  12.169   5.905  0.1810  0.0874  0.2250
    1DPPC   C2A  882  28.386  11.904   5.522  0.0202  0.1170  0.0913
    1DPPC   C3A  883  28.438  11.842   5.031  0.0072 -0.1248 -0.0496
    1DPPC   C4A  884  28.249  11.847   4.663  0.1799 -0.0462  0.0001
    1DPPC   C1B  885  28.258  12.679   5.960  0.0397  0.3864 -0.0285
    1DPPC   C2B  886  28.322  12.589   5.575 -0.1838  0.0142 -0.0669
    1DPPC   C3B  887  28.382  12.468   5.203  0.1655  0.0581 -0.1431
    1DPPC   C4B  888  28.353  12.322   4.787 -0.1084  0.1322 -0.1481
    1DPPC   NC3  889  25.493  21.900   6.451  0.1677  0.3396 -0.0620
    1DPPC   PO4  890  25.220  21.741   6.113  0.1393  0.0754 -0.1033
    1DPPC   GL1  891  25.092  21.645   5.746  0.0140 -0.1231 -0.1820
    1DPPC   GL2  892  25.305  21.338   5.727  0.3069  0.0802 -0.2384
    1DPPC   C1A  893  25.078  21.848   5.369 -0.1072  0.0924 -0.1314
    1DPPC   C2A  894  25.073  22.061   5.164 -0.1522  0.0592 -0.0235
    1DPPC   C3A  895  24.875  22.059   4.765 -0.0585  0.0001 -0.1165
    1DPPC   C4A  896  24.855  22.242   4.324 -0.2033  0.0141 -0.3397
    1DPPC   C1B  897  25.368  21.399   5.238 -0.2446 -0.1275  0.0405
    1DPPC   C2B  898  25.306  21.519   4.827  0.1307  0.3562 -0.4195
    1DPPC   C3B  899  25.344  21.880   4.523  0.0119  0.3802  0.1109
    1DPPC   C4B  900  25.443  22.159   4.084 -0.0621  0.0482  0.1816
    1DPPC   NC3  901  12.529  17.726   6.362 -0.1241 -0.3485 -0.4380
    1DPPC   PO4  902  12.978  17.775   6.394  0.3278  0.0769 -0.2450
    1DPPC   GL1  903  12.950  17.584   5.949 -0.0717  0.0810  0.0923
    1DPPC   GL2  904  13.148  17.251   5.986 -0.0295 -0.0539  0.2132
    1DPPC   C1A  905  13.209  17.579   5.603 -0.5077 -0.1803  0.5360
    1DPPC   C2A  906  13.150  17.612   5.208 -0.1035  0.2177 -0.5031
    1DPPC   C3A  907  13.073  17.421   4.726 -0.3689  0.2397  0.2905
    1DPPC   C4A  908  13.461  17.403   4.472 -0.1552  0.1527 -0.0387
    1DPPC   C1B  909  12.987  16.912   5.940 -0.3387 -0.0073 -0.0069
    1DPPC   C2B  910  12.907  16.627   5.612  0.1162 -0.0026 -0.1207
    1DPPC   C3B  911  12.978  16.664   5.168  0.2349  0.1631  0.1012
    1DPPC   C4B  912  12.756  16.827   4.939  0.0014  0.0296  0.2566
    1DPPC   NC3  913   1.175  11.984   6.478 -0.3003 -0.2348  0.0223
    1DPPC   PO4  914   1.435  12.399   6.408 -0.0974  0.1750  0.0615
    1DPPC   GL1  915   1.620  12.411   5.974  0.0920  0.1917 -0.0785
    1DPPC   GL2  916   1.776  12.058   6.108  0.0848  0.3751 -0.2302
    1DPPC   C1A  917   1.593  12.284   5.521  0.1892 -0.0170  0.1253
    1DPPC   C2A  918   1.649  12.216   5.149 -0.1824  0.3049 -0.1761
    1DPPC   C3A  919   2.090  12.138   4.978  0.4224  0.2867  0.0103
    1DPPC   C4A  920   2.266  11.716   4.763  0.0387 -0.3231  0.0057
    1DPPC   C1B  921   1.740  11.893   5.779 -0.0165 -0.2728  0.1632
    1DPPC   C2B  922   1.764  11.757   5.425  0.0189 -0.2047 -0.2004
    1DPPC   C3B  923   1.765  11.731   5.065  0.1045 -0.1405  0.2463
    1DPPC   C4B  924   1.762  11.441   4.661  0.1109  0.0873  0.0939
    1DPPC   NC3  925  26.719  21.725   6.367  0.0730  0.0378 -0.1065
    1DPPC   PO4  926  26.415  21.332   6.337 -0.1338 -0.0929  0.1952
    1DPPC   GL1  927  26.230  21.446   5.925  0.0949 -0.0810 -0.0541
    1DPPC   GL2  928  25.888  21.404   5.805  0.2103  0.1614  0.0945
    1DPPC   C1A  929  26.218  21.666   5.503 -0.1601 -0.0044 -0.0832
    1DPPC   C2A  930  26.190  21.607   5.126  0.2613  0.2785  0.2497
    1DPPC   C3A  931  26.124  21.748   4.745 -0.2698  0.0036  0.2697
    1DPPC   C4A  932  26.254  21.795   4.349 -0.3022 -0.1780 -0.0782
    1DPPC   C1B  933  25.827  21.348   5.447 -0.2030 -0.1699  0.2342
    1DPPC   C2B  934  25.803  21.392   4.970 -0.0313 -0.3700 -0.1433
    1DPPC   C3B  935  25.745  21.531   4.515  0.2449  0.2955  0.0815
    1DPPC   C4B  936  25.578  21.684   4.131 -0.1362 -0.2931 -0.1476
    1DPPC   NC3  937  28.470  15.838   6.585  0.1620  0.1842  0.0374
    1DPPC   PO4  938  28.655  16.138   6.279 -0.0074 -0.0406  0.0977
    1DPPC   GL1  939  28.536  15.865   6.000 -0.0460  0.0668  0.1316
    1DPPC   GL2  940  28.341  15.865   5.769  0.3493 -0.1694 -0.1079
    1DPPC   C1A  941  28.702  15.461   5.783  0.1653 -0.0871 -0.1184
    1DPPC   C2A  942  28.770  15.330   5.417 -0.2910  0.0762 -0.1053
    1DPPC   C3A  943  28.738  15.256   5.081 -0.3131  0.3135  0.1724
    1DPPC   C4A  944  28.512  15.264   4.807 -0.1676 -0.4082  0.1030
    1DPPC   C1B  945  28.479  15.799   5.475  0.2446 -0.1181 -0.3383
    1DPPC   C2B  946  28.415  15.655   5.091  0.0506 -0.1066 -0.0101
    1DPPC   C3B  947  28.093  15.516   4.721 -0.2127 -0.0292 -0.0954
    1DPPC   C4B  948  27.725  15.452   4.370 -0.2136  0.0428 -0.2436
    1DPPC   NC3  949   5.332   8.691   6.551  0.0338 -0.1227  0.1331
    1DPPC   PO4  950   5.719   8.653   6.341  0.0858  0.1140 -0.0589
    1DPPC   GL1  951   5.636   8.589   5.979 -0.1340  0.0611 -0.2374
    1DPPC   GL2  952   5.863   8.827   5.848  0.0289 -0.1449  0.0314
    1DPPC   C1A  953   5.705   8.351   5.644 -0.1790 -0.0479  0.0028
    1DPPC   C2A  954   5.809   8.145   5.231  0.0911  0.0992  0.2554
    1DPPC   C3A  955   6.027   7.846   4.974 -0.1491 -0.1684  0.0426
    1DPPC   C4A  956   5.971   7.441   4.701 -0.1657  0.0823  0.0512
    1DPPC   C1B  957   5.736   8.888   5.426  0.0784  0.0386  0.0712
    1DPPC   C2B  958   5.768   8.861   4.967 -0.0391 -0.0515 -0.0065
    1DPPC   C3B  959   5.881   8.603   4.585 -0.2349  0.2667 -0.0669
    1DPPC   C4B  960   5.914   8.572   4.178  0.1225  0.2063  0.0492
    1DPPC   NC3  961   3.168  17.608   6.412 -0.1338 -0.0835 -0.1859
    1DPPC   PO4  962   3.269  17.996   6.306  0.0547  0.0878  0.4740
    1DPPC   GL1  963   3.342  17.853   5.826  0.1460  0.1308  0.1949
    1DPPC   GL2  964   3.674  17.863   5.771 -0.1712  0.3152 -0.0322
    1DPPC   C1A  965   3.339  17.790   5.389  0.1196  0.0394  0.0634
    1DPPC   C2A  966   3.340  17.826   5.022  0.1284  0.1242  0.0363
    1DPPC   C3A  967   3.349  17.657   4.636 -0.0205 -0.3170  0.2081
    1DPPC   C4A  968   3.418  17.640   4.194 -0.1175 -0.0933 -0.0643
    1DPPC   C1B  969   3.959  17.988   5.422 -0.1022 -0.2595 -0.0220
    1DPPC   C2B  970   3.915  18.027   4.988 -0.0471  0.0926  0.1649
    1DPPC   C3B  971   3.701  18.021   4.618  0.0288  0.2461 -0.0364
    1DPPC   C4B  972   3.437  18.124   4.394  0.1498  0.0177 -0.0378
    1DPPC   NC3  973  26.408  19.281   6.036 -0.0335  0.3914  0.0094
    1DPPC   PO4  974  26.341  18.782   6.111  0.1119 -0.3124 -0.3632
    1DPPC   GL1  975  26.115  18.850   5.657 -0.1328  0.0380 -0.2043
    1DPPC   GL2  976  26.422  19.079   5.535 -0.1446 -0.0112 -0.0565
    1DPPC   C1A  977  25.929  18.575   5.458  0.0588 -0.1177  0.0646
    1DPPC   C2A  978  25.914  18.565   5.089  0.2205  0.2120 -0.3069
    1DPPC   C3A  979  25.754  18.691   4.619 -0.3126 -0.0778  0.1541
    1DPPC   C4A  980  25.592  18.568   4.247 -0.0683  0.0658 -0.1823
    1DPPC   C1B  981  26.231  19.026   5.125  0.0185 -0.1470  0.1167
    1DPPC   C2B  982  26.223  19.050   4.684  0.1868  0.2679  0.3159
    1DPPC   C3B  983  26.206  18.953   4.219 -0.4216 -0.2622 -0.2172
    1DPPC   C4B  984  25.844  18.934   4.060 -0.2009 -0.0607  0.2391
    1DPPC   NC3  985   7.285  16.416   6.256  0.1253 -0.2227  0.1662
    1DPPC   PO4  986   6.902  16.165   6.133  0.0001  0.2229 -0.0141
    1DPPC   GL1  987   6.783  16.215   5.703  0.1410  0.2168  0.1751
    1DPPC   GL2  988   6.881  16.509   5.496 -0.2622  0.2829 -0.1026
    1DPPC   C1A  989   6.953  16.038   5.267  0.3820  0.0403  0.1405
    1DPPC   C2A  990   6.930  15.788   4.862 -0.0168  0.0863  0.1093
    1DPPC   C3A  991   6.747  15.874   4.471 -0.1951 -0.2496  0.3763
    1DPPC   C4A  992   6.587  15.742   4.139 -0.2713 -0.1678  0.0438
    1DPPC   C1B  993   6.997  16.490   5.084  0.0495 -0.3128  0.1187
    1DPPC   C2B  994   6.922  16.374   4.643 -0.0079 -0.1112 -0.0719
    1DPPC   C3B  995   6.580  16.395   4.356 -0.0345  0.0202  0.2839
    1DPPC   C4B  996   6.121  16.244   4.162 -0.2910 -0.0414 -0.0755
    1DPPC   NC3  997   2.431  16.801   6.652  0.0027 -0.1573 -0.1879
    1DPPC   PO4  998   2.345  17.244   6.527  0.3320  0.3747  0.0278
    1DPPC   GL1  999   2.274  17.318   6.078  0.0202  0.2610 -0.0017
    1DPPC   GL2 1000   1.975  17.441   6.003 -0.0478  0.2952 -0.3578
    1DPPC   C1A 1001   2.245  17.050   5.761 -0.1057 -0.0343 -0.0885
    1DPPC   C2A 1002   2.216  16.994   5.388  0.2340  0.2800  0.0760
    1DPPC   C3A 1003   2.149  17.103   4.940 -0.2088 -0.0518  0.0202
    1DPPC   C4A 1004   2.131  17.118   4.602 -0.0743  0.0036 -0.0639
    1DPPC   C1B 1005   1.868  17.379   5.584 -0.4102 -0.2043 -0.1245
    1DPPC   C2B 1006   1.884  17.435   5.210  0.4717  0.0763  0.1353
    1DPPC   C3B 1007   1.834  17.457   4.775 -0.1825  0.1024 -0.0742
    1DPPC   C4B 1008   1.770  17.526   4.353  0.4326  0.1742 -0.0468
    1DPPC   NC3 1009  15.949  19.592   6.044 -0.2123  0.0375  0.0801
    1DPPC   PO4 1010  15.522  19.742   5.911  0.0354 -0.0100 -0.2740
    1DPPC   GL1 1011  15.580  19.793   5.484 -0.2591  0.0586  0.1420
    1DPPC   GL2 1012  15.393  19.558   5.368 -0.0099 -0.1551  0.0871
    1DPPC   C1A 1013  15.604  19.921   5.119 -0.3093 -0.3784  0.0349
    1DPPC   C2A 1014  15.608  20.109   4.656  0.2468 -0.3721 -0.0377
    1DPPC   C3A 1015  15.588  20.359   4.214  0.0932 -0.0580  0.1085
    1DPPC   C4A 1016  15.436  20.605   3.878  0.2275  0.2837 -0.2974
    1DPPC   C1B 1017  15.202  19.658   4.925  0.3627  0.1223  0.1181
    1DPPC   C2B 1018  15.457  19.606   4.486  0.0698  0.0325 -0.0474
    1DPPC   C3B 1019  15.818  19.476   4.453  0.1430  0.0951  0.0633
    1DPPC   C4B 1020  16.189  19.463   4.300  0.0285 -0.0627  0.2298
    1DPPC   NC3 1021   7.855  19.140   5.653 -0.0467  0.4025  0.2381
    1DPPC   PO4 1022   7.549  19.312   5.867 -0.2788 -0.1920 -0.2441
    1DPPC   GL1 1023   7.470  19.318   5.391  0.2612 -0.2112  0.0937
    1DPPC   GL2 1024   7.674  19.592   5.347  0.0071 -0.1495  0.0402
    1DPPC   C1A 1025   7.115  19.479   5.152  0.1490  0.1106 -0.0826
    1DPPC   C2A 1026   7.089  19.656   4.777  0.0787  0.1538  0.1501
    1DPPC   C3A 1027   7.019  19.639   4.344  0.0752 -0.3815  0.0999
    1DPPC   C4A 1028   7.138  19.474   3.920  0.0446 -0.3289 -0.0900
    1DPPC   C1B 1029   7.471  19.804   5.134  0.1283  0.4152 -0.0375
    1DPPC   C2B 1030   7.516  19.911   4.773 -0.0925  0.2548  0.0009
    1DPPC   C3B 1031   7.365  19.947   4.304 -0.4028  0.0353 -0.0014
    1DPPC   C4B 1032   7.314  20.158   3.891 -0.1908 -0.1126 -0.2701
    1DPPC   NC3 1033  28.812  10.974   7.064 -0.1712 -0.0363  0.0155
    1DPPC   PO4 1034  28.720  10.906   6.736 -0.1201  0.2920  0.2014
    1DPPC   GL1 1035  28.655  10.958   6.310 -0.3046  0.2987 -0.0660
    1DPPC   GL2 1036  28.897  10.879   6.180  0.2107 -0.1669  0.0315
    1DPPC   C1A 1037  28.505  11.042   5.848  0.0920 -0.0179  0.2852
    1DPPC   C2A 1038  28.597  10.949   5.351 -0.0069  0.0213  0.0153
    1DPPC   C3A 1039  28.739  11.009   4.937  0.1140 -0.0702 -0.3076
    1DPPC   C4A 1040  28.913  11.037   4.515  0.4005  0.2648  0.2856
    1DPPC   C1B 1041  29.008  11.059   5.676  0.3781  0.1703  0.3456
    1DPPC   C2B 1042  29.103  11.050   5.316 -0.1786 -0.2373 -0.0219
    1DPPC   C3B 1043  29.247  10.994   4.930  0.3168  0.1752 -0.0683
    1DPPC   C4B 1044  29.571  11.122   4.802  0.0223  0.0920 -0.2072
    1DPPC   NC3 1045   1.542  21.265   7.085  0.0537 -0.0526  0.0276
    1DPPC   PO4 1046   1.604  21.250   6.602 -0.1902  0.2200  0.1957
    1DPPC   GL1 1047   1.563  21.203   6.070  0.0411  0.1184  0.0408
    1DPPC   GL2 1048   1.353  21.183   5.953  0.4220 -0.0115 -0.2715
    1DPPC   C1A 1049   1.873  21.154   5.764  0.0970  0.0556  0.3475
    1DPPC   C2A 1050   1.902  21.149   5.341  0.1339 -0.1493  0.5772
    1DPPC   C3A 1051   2.024  21.220   4.917  0.0218  0.3420  0.1563
    1DPPC   C4A 1052   2.246  20.993   4.619  0.0904  0.1064  0.2447
    1DPPC   C1B 1053   1.321  21.174   5.616  0.3376  0.2852 -0.0918
    1DPPC   C2B 1054   1.427  21.239   5.229  0.1741 -0.1326  0.0823
    1DPPC   C3B 1055   1.501  21.249   4.850 -0.2551 -0.2015 -0.0343
    1DPPC   C4B 1056   1.481  21.447   4.521  0.1600  0.0068  0.1532
    1DPPC   NC3 1057   5.615  24.583   6.406  0.0164 -0.1174  0.0123
    1DPPC   PO4 1058   6.045  24.617   6.502 -0.0189 -0.0448 -0.3307
    1DPPC   GL1 1059   5.987  24.837   6.175 -0.1708  0.4079  0.0033
    1DPPC   GL2 1060   5.621  25.053   6.189  0.1332  0.1032  0.0770
    1DPPC   C1A 1061   5.953  24.880   5.790  0.2071 -0.1004 -0.0865
    1DPPC   C2A 1062   5.916  25.104   5.379 -0.0933 -0.1273 -0.2926
    1DPPC   C3A 1063   5.995  24.960   4.949  0.0805 -0.1123 -0.0317
    1DPPC   C4A 1064   6.088  24.757   4.673  0.0871  0.0594  0.0563
    1DPPC   C1B 1065   5.197  25.179   6.010 -0.2338  0.0127 -0.0940
    1DPPC   C2B 1066   4.909  24.969   5.748 -0.1974  0.0133 -0.7950
    1DPPC   C3B 1067   4.961  24.953   5.331  0.3372  0.0407 -0.0840
    1DPPC   C4B 1068   4.961  24.821   4.964 -0.0682 -0.1978  0.0941
    1DPPC   NC3 1069   3.086  15.063   6.472  0.0521  0.0673  0.0340
    1DPPC   PO4 1070   3.419  15.238   6.620 -0.1062  0.0696 -0.2221
    1DPPC   GL1 1071   3.436  15.392   6.223  0.1027  0.1587 -0.0232
    1DPPC   GL2 1072   3.163  15.452   6.099  0.0112 -0.0079  0.0917
    1DPPC   C1A 1073   3.652  15.232   5.877 -0.1472 -0.1179  0.0381
    1DPPC   C2A 1074   3.539  15.207   5.402 -0.0295 -0.0570  0.2594
    1DPPC   C3A 1075   3.529  15.079   4.962 -0.1040  0.1275  0.1302
    1DPPC   C4A 1076   3.646  15.045   4.512  0.0378  0.2740  0.0901
    1DPPC   C1B 1077   3.132  15.266   5.721 -0.0769  0.1153 -0.0245
    1DPPC   C2B 1078   3.110  15.068   5.213  0.2485  0.0883  0.0089
    1DPPC   C3B 1079   3.088  14.808   4.810  0.4030  0.2088 -0.0712
    1DPPC   C4B 1080   3.177  14.639   4.362  0.0164  0.1053  0.1564
    1DPPC   NC3 1081   1.220  20.838   6.260 -0.1389  0.0871 -0.0238
    1DPPC   PO4 1082   1.319  20.501   6.608 -0.1824  0.2122  0.0714
    1DPPC   GL1 1083   1.456  20.371   6.159  0.1630 -0.1378  0.1391
    1DPPC   GL2 1084   1.578  20.672   5.960 -0.1102 -0.2139 -0.0378
    1DPPC   C1A 1085   1.496  20.299   5.651  0.2733  0.0233 -0.1126
    1DPPC   C2A 1086   1.549  20.340   5.192 -0.0003 -0.2274 -0.1074
    1DPPC   C3A 1087   1.590  20.302   4.766  0.0438  0.1582 -0.0031
    1DPPC   C4A 1088   1.459  19.999   4.328  0.1744  0.0541 -0.1594
    1DPPC   C1B 1089   1.562  20.772   5.530 -0.0936 -0.3368 -0.1142
    1DPPC   C2B 1090   1.635  20.816   5.001 -0.3333 -0.1680  0.2620
    1DPPC   C3B 1091   1.807  20.827   4.549 -0.2410  0.0518 -0.0210
    1DPPC   C4B 1092   1.533  21.006   4.291  0.2763 -0.0961 -0.1373
    1DPPC   NC3 1093   3.269   9.888   6.475 -0.1476 -0.2645 -0.0591
    1DPPC   PO4 1094   3.529   9.545   6.440  0.0015 -0.1224  0.0671
    1DPPC   GL1 1095   3.652   9.455   6.070 -0.2476 -0.1269  0.2330
    1DPPC   GL2 1096   3.956   9.637   6.038  0.0322 -0.0670  0.1014
    1DPPC   C1A 1097   3.799   9.271   5.711 -0.3936  0.2795 -0.1408
    1DPPC   C2A 1098   3.773   9.477   5.363  0.1418  0.0654  0.1936
    1DPPC   C3A 1099   3.578   9.675   5.058  0.0353 -0.3256 -0.0440
    1DPPC   C4A 1100   3.481   9.725   4.637 -0.0101 -0.1128 -0.1543
    1DPPC   C1B 1101   4.053   9.779   5.602  0.0204  0.1024 -0.1757
    1DPPC   C2B 1102   4.061   9.823   5.167  0.1115  0.1137  0.1906
    1DPPC   C3B 1103   3.993   9.504   4.780  0.0839  0.0133 -0.0271
    1DPPC   C4B 1104   3.688   9.315   4.381  0.0494 -0.1289 -0.0363
    1DPPC   NC3 1105  23.128   3.213   6.944 -0.2063  0.1276  0.0111
    1DPPC   PO4 1106  23.504   3.389   6.919 -0.1331  0.1613  0.1112
    1DPPC   GL1 1107  23.618   3.423   6.626  0.0431  0.3900  0.0551
    1DPPC   GL2 1108  23.826   3.186   6.449 -0.0303 -0.1810 -0.1517
    1DPPC   C1A 1109  23.330   3.388   6.266 -0.0111 -0.2455  0.1182
    1DPPC   C2A 1110  22.920   3.437   6.239  0.0083  0.2220  0.1857
    1DPPC   C3A 1111  22.580   3.292   6.056  0.4369 -0.0705 -0.1758
    1DPPC   C4A 1112  22.303   2.875   5.917  0.4123 -0.1140  0.0595
    1DPPC   C1B 1113  24.004   3.115   6.059 -0.1719 -0.5188 -0.4230
    1DPPC   C2B 1114  23.769   3.220   5.689  0.1328 -0.3331  0.1598
    1DPPC   C3B 1115  23.601   3.613   5.501 -0.0912 -0.2603 -0.0520
    1DPPC   C4B 1116  23.386   3.927   5.080 -0.1330 -0.0779  0.0547
    1DPPC   NC3 1117  29.171  14.688   6.526  0.0295 -0.1501 -0.1894
    1DPPC   PO4 1118  28.936  14.906   6.286 -0.2190  0.1730  0.0801
    1DPPC   GL1 1119  29.207  14.925   5.912 -0.0235  0.1002  0.1994
    1DPPC   GL2 1120  29.601  14.899   5.898 -0.1310 -0.0608 -0.1012
    1DPPC   C1A 1121  29.029  14.928   5.488  0.1643 -0.0520 -0.0320
    1DPPC   C2A 1122  29.015  14.852   5.056 -0.3149  0.1399 -0.0184
    1DPPC   C3A 1123  28.903  14.968   4.635  0.1513 -0.1157  0.4003
    1DPPC   C4A 1124  29.022  14.988   4.230 -0.0148 -0.1111  0.1552
    1DPPC   C1B 1125  29.630  14.859   5.492 -0.0187 -0.0513  0.2336
    1DPPC   C2B 1126  29.601  14.894   5.008 -0.0732  0.0424 -0.2661
    1DPPC   C3B 1127  29.688  14.705   4.614  0.1632  0.2452 -0.0722
    1DPPC   C4B 1128  29.952  14.571   4.290  0.2162  0.2066 -0.0491
    1DPPC   NC3 1129   3.067  22.394   6.611 -0.0621 -0.0719  0.2058
    1DPPC   PO4 1130   2.768  22.645   6.750  0.1177 -0.0624 -0.1598
    1DPPC   GL1 1131   2.698  22.546   6.321 -0.1011  0.0020  0.1215
    1DPPC   GL2 1132   2.477  22.285   6.301  0.0107  0.1104 -0.1110
    1DPPC   C1A 1133   2.763  22.641   5.908 -0.0891  0.2303 -0.0928
    1DPPC   C2A 1134   2.696  22.657   5.494 -0.0287 -0.1170  0.1560
    1DPPC   C3A 1135   2.788  22.658   5.062  0.1998  0.0827 -0.2219
    1DPPC   C4A 1136   2.608  22.553   4.758 -0.0976  0.0170 -0.2466
    1DPPC   C1B 1137   2.322  22.431   5.963 -0.1963  0.2462 -0.0031
    1DPPC   C2B 1138   2.259  22.436   5.518  0.1527 -0.0601 -0.0552
    1DPPC   C3B 1139   2.278  22.747   5.140  0.1204 -0.0865  0.1268
    1DPPC   C4B 1140   2.526  23.074   4.899 -0.1268  0.0540 -0.0630
    1DPPC   NC3 1141   4.515  19.887   6.002 -0.0904 -0.0588 -0.0079
    1DPPC   PO4 1142   4.933  19.760   6.117 -0.0983 -0.1668 -0.0717
    1DPPC   GL1 1143   4.974  19.824   5.618  0.0883 -0.0913 -0.1709
    1DPPC   GL2 1144   5.225  19.730   5.469  0.3700 -0.0458 -0.1406
    1DPPC   C1A 1145   4.800  19.882   5.160  0.0261  0.2420  0.0042
    1DPPC   C2A 1146   4.854  19.865   4.723 -0.1392  0.2604  0.2900
    1DPPC   C3A 1147   4.766  20.163   4.419  0.0861  0.1420  0.0021
    1DPPC   C4A 1148   4.904  20.234   4.095  0.0363 -0.0229  0.0591
    1DPPC   C1B 1149   5.322  19.987   5.062 -0.0206 -0.0916  0.2617
    1DPPC   C2B 1150   5.316  20.104   4.577 -0.0806  0.2290 -0.3412
    1DPPC   C3B 1151   5.456  20.056   4.095 -0.1062  0.0763  0.0189
    1DPPC   C4B 1152   5.356  19.904   3.796  0.0751  0.0268  0.2470
    1DPPC   NC3 1153   2.805  20.654   6.315  0.1525 -0.2366 -0.0377
    1DPPC   PO4 1154   3.242  20.904   6.174  0.0194  0.1655  0.2345
    1DPPC   GL1 1155   3.465  20.941   5.815 -0.2440 -0.0912  0.1156
    1DPPC   GL2 1156   3.832  21.059   5.850  0.2799  0.1221  0.2777
    1DPPC   C1A 1157   3.600  20.868   5.375  0.1943  0.0063 -0.1788
    1DPPC   C2A 1158   3.637  21.008   4.914  0.0770 -0.0119 -0.1246
    1DPPC   C3A 1159   3.750  20.975   4.475  0.1548  0.1536 -0.0994
    1DPPC   C4A 1160   3.558  21.048   4.174 -0.0570 -0.0130 -0.0931
    1DPPC   C1B 1161   4.006  21.185   5.399 -0.2101 -0.1399  0.3147
    1DPPC   C2B 1162   4.100  21.321   5.040 -0.1553 -0.0431 -0.1588
    1DPPC   C3B 1163   4.058  21.244   4.705 -0.1876  0.3220  0.0426
    1DPPC   C4B 1164   3.979  21.381   4.262  0.0022 -0.0430  0.1636
    1DPPC   NC3 1165   3.084  12.702   6.756 -0.1172  0.1154 -0.1039
    1DPPC   PO4 1166   2.833  12.593   6.407  0.1646 -0.1403  0.0878
    1DPPC   GL1 1167   2.782  12.598   5.927 -0.1371 -0.0747  0.1667
    1DPPC   GL2 1168   3.019  12.662   5.877  0.0034 -0.0152 -0.0107
    1DPPC   C1A 1169   2.969  12.301   5.611  0.0260 -0.2009 -0.1639
    1DPPC   C2A 1170   2.952  12.423   5.289  0.0651 -0.0293 -0.0944
    1DPPC   C3A 1171   3.192  12.623   5.003 -0.1834 -0.1184 -0.1046
    1DPPC   C4A 1172   3.499  12.680   4.747 -0.0245 -0.2265  0.2200
    1DPPC   C1B 1173   2.866  12.888   5.464 -0.3443  0.3066 -0.1727
    1DPPC   C2B 1174   2.725  12.891   5.090  0.1612  0.2993  0.0919
    1DPPC   C3B 1175   2.719  12.553   4.871 -0.2311 -0.1923  0.2534
    1DPPC   C4B 1176   3.088  12.152   4.834  0.1891  0.2543 -0.2080
    1DPPC   NC3 1177  28.792  18.582   6.501  0.1472 -0.0936  0.3505
    1DPPC   PO4 1178  28.511  18.661   6.129 -0.2754  0.1599 -0.0574
    1DPPC   GL1 1179  28.579  18.591   5.646  0.1918 -0.3205  0.1641
    1DPPC   GL2 1180  28.820  18.732   5.508  0.0490  0.0650  0.1092
    1DPPC   C1A 1181  28.313  18.453   5.340 -0.0327 -0.1053 -0.3157
    1DPPC   C2A 1182  28.237  18.560   4.937 -0.1482 -0.3743  0.2467
    1DPPC   C3A 1183  28.310  18.516   4.492  0.0258 -0.2766 -0.0953
    1DPPC   C4A 1184  28.376  18.229   4.082 -0.2242 -0.3844 -0.2004
    1DPPC   C1B 1185  28.695  18.754   5.111 -0.1683  0.1646 -0.0448
    1DPPC   C2B 1186  28.725  18.819   4.618 -0.1063 -0.0433  0.1450
    1DPPC   C3B 1187  28.671  18.699   4.200  0.2060  0.0060 -0.0876
    1DPPC   C4B 1188  28.942  18.442   3.998  0.0695 -0.1501  0.0525
    1DPPC   NC3 1189  29.198  12.943   6.935  0.1535  0.3310  0.3254
    1DPPC   PO4 1190  28.963  12.682   6.726 -0.0717  0.1098 -0.0040
    1DPPC   GL1 1191  28.937  12.697   6.217  0.0951  0.3948  0.0550
    1DPPC   GL2 1192  29.113  13.031   6.077 -0.2452 -0.2190 -0.2344
    1DPPC   C1A 1193  28.939  12.454   5.905  0.3884  0.0116 -0.0401
    1DPPC   C2A 1194  28.753  12.285   5.559 -0.4542  0.0092  0.0036
    1DPPC   C3A 1195  28.779  12.184   5.102  0.0818 -0.0524 -0.2307
    1DPPC   C4A 1196  28.761  12.002   4.705  0.1043  0.2277  0.1214
    1DPPC   C1B 1197  29.264  13.082   5.653  0.0947 -0.3327  0.1167
    1DPPC   C2B 1198  29.251  13.001   5.189  0.2411 -0.0510  0.3673
    1DPPC   C3B 1199  29.130  12.877   4.699 -0.2292 -0.3065  0.2119
    1DPPC   C4B 1200  29.183  12.868   4.287 -0.1021 -0.0921  0.2903
    1DPPC   NC3 1201   0.775  13.117   6.636 -0.0585  0.3009  0.1329
    1DPPC   PO4 1202   0.347  13.048   6.839  0.1418 -0.1445 -0.0968
    1DPPC   GL1 1203   0.355  12.935   6.387  0.1309  0.2381 -0.1219
    1DPPC   GL2 1204   0.009  13.007   6.238 -0.2569  0.2385 -0.0449
    1DPPC   C1A 1205   0.446  13.042   5.936  0.0463  0.1274 -0.0504
    1DPPC   C2A 1206   0.416  13.032   5.529  0.2079  0.0406  0.2194
    1DPPC   C3A 1207   0.402  13.113   5.121 -0.3033  0.0745  0.1485
    1DPPC   C4A 1208   0.387  12.912   4.637  0.1442 -0.2448 -0.1697
    1DPPC   C1B 1209  30.314  13.032   5.745 -0.6031 -0.0039  0.0465
    1DPPC   C2B 1210  30.331  13.002   5.368 -0.0607 -0.0826  0.0029
    1DPPC   C3B 1211  30.352  12.992   4.912  0.0545 -0.2504  0.0366
    1DPPC   C4B 1212  30.253  12.828   4.488 -0.2643 -0.0235  0.0631
    1DPPC   NC3 1213  28.615  17.884   6.254  0.0108 -0.3435 -0.1345
    1DPPC   PO4 1214  28.772  18.109   6.566 -0.3194 -0.0824  0.2772
    1DPPC   GL1 1215  28.840  18.273   6.039  0.4302  0.0074  0.3313
    1DPPC   GL2 1216  28.816  17.936   5.783  0.2102 -0.0645  0.1132
    1DPPC   C1A 1217  29.049  18.363   5.666 -0.0255 -0.0627  0.0097
    1DPPC   C2A 1218  28.860  18.311   5.280  0.1584 -0.0484 -0.2401
    1DPPC   C3A 1219  28.625  18.212   4.903  0.2922 -0.2839 -0.0889
    1DPPC   C4A 1220  28.599  18.116   4.493 -0.1183 -0.0715 -0.3733
    1DPPC   C1B 1221  28.568  17.874   5.341 -0.0599  0.0355  0.2230
    1DPPC   C2B 1222  28.589  17.643   4.988 -0.0678  0.1014  0.0730
    1DPPC   C3B 1223  28.738  17.611   4.598 -0.1152  0.3412 -0.3355
    1DPPC   C4B 1224  28.644  17.407   4.292 -0.2467  0.1964  0.0540
    1DPPC   NC3 1225   2.235  20.730   6.657  0.1329  0.3998  0.2175
    1DPPC   PO4 1226   2.510  21.056   6.427 -0.0427  0.1534  0.3889
    1DPPC   GL1 1227   2.776  21.222   6.020  0.0134  0.1268  0.1648
    1DPPC   GL2 1228   3.080  21.315   5.919  0.0357 -0.1182 -0.1083
    1DPPC   C1A 1229   2.745  21.457   5.542 -0.2627 -0.1928 -0.3008
    1DPPC   C2A 1230   2.889  21.456   5.128  0.2904  0.1513 -0.0003
    1DPPC   C3A 1231   2.945  21.569   4.748  0.1453 -0.2135  0.1857
    1DPPC   C4A 1232   2.939  21.674   4.266 -0.1267 -0.1061  0.0468
    1DPPC   C1B 1233   3.308  21.279   5.569 -0.1159 -0.2285 -0.0281
    1DPPC   C2B 1234   3.568  21.374   5.224 -0.2830 -0.0460  0.0221
    1DPPC   C3B 1235   3.479  21.554   4.817  0.1036 -0.1922 -0.0106
    1DPPC   C4B 1236   3.488  21.503   4.393 -0.2238 -0.0768  0.1772
    1DPPC   NC3 1237   0.943  10.143   7.035  0.1090  0.0019  0.1702
    1DPPC   PO4 1238   1.003   9.819   6.831  0.2062  0.0124  0.1544
    1DPPC   GL1 1239   1.121   9.498   6.470  0.2248 -0.1957 -0.0210
    1DPPC   GL2 1240   1.543   9.439   6.493 -0.1941 -0.2019 -0.1599
    1DPPC   C1A 1241   1.068   9.414   6.025 -0.1871 -0.4096  0.0311
    1DPPC   C2A 1242   0.836   9.519   5.603  0.1570 -0.0939  0.0281
    1DPPC   C3A 1243   0.454   9.591   5.448  0.0803 -0.0985  0.1080
    1DPPC   C4A 1244   0.181   9.797   5.474  0.2113  0.5550 -0.0592
    1DPPC   C1B 1245   1.445   9.781   6.130  0.0302  0.0617 -0.2582
    1DPPC   C2B 1246   1.358   9.678   5.715 -0.1450  0.2211 -0.3902
    1DPPC   C3B 1247   1.166   9.695   5.336  0.1593 -0.0780  0.1819
    1DPPC   C4B 1248   1.468   9.533   5.007 -0.0368  0.1637 -0.4078
    1DPPC   NC3 1249   2.821  21.536   6.882  0.0552  0.0747 -0.2982
    1DPPC   PO4 1250   2.678  21.933   6.611 -0.1064 -0.2419 -0.0034
    1DPPC   GL1 1251   2.412  21.773   6.170 -0.1545 -0.3514 -0.2678
    1DPPC   GL2 1252   2.335  21.392   6.002  0.1532 -0.1756 -0.2274
    1DPPC   C1A 1253   2.151  21.946   5.974 -0.0338 -0.1971  0.0774
    1DPPC   C2A 1254   2.026  21.983   5.625  0.0821 -0.1763  0.2384
    1DPPC   C3A 1255   1.778  22.300   5.195  0.3096 -0.2306 -0.1116
    1DPPC   C4A 1256   1.827  22.217   4.802 -0.1639 -0.1400  0.1657
    1DPPC   C1B 1257   2.227  21.504   5.571  0.2050  0.0829  0.0055
    1DPPC   C2B 1258   2.335  21.533   5.134  0.2249  0.1087 -0.0435
    1DPPC   C3B 1259   2.464  21.700   4.712 -0.0803 -0.3433  0.0348
    1DPPC   C4B 1260   2.470  21.833   4.304  0.0976  0.3168 -0.0657
    1DPPC   NC3 1261   5.150  21.679   5.922  0.0672 -0.0833  0.0492
    1DPPC   PO4 1262   4.978  21.240   5.851  0.2493 -0.0370  0.1713
    1DPPC   GL1 1263   4.990  21.293   5.453  0.0697 -0.0486 -0.0693
    1DPPC   GL2 1264   5.084  21.594   5.456  0.3358  0.1513 -0.0152
    1DPPC   C1A 1265   5.033  21.516   4.976 -0.1822 -0.1381 -0.2680
    1DPPC   C2A 1266   4.996  21.475   4.531  0.2340  0.2224 -0.1013
    1DPPC   C3A 1267   4.931  21.396   4.134  0.1199  0.3308  0.1242
    1DPPC   C4A 1268   5.130  21.701   3.756 -0.0626 -0.0335  0.1582
    1DPPC   C1B 1269   4.971  21.916   5.249 -0.1531  0.2015 -0.0655
    1DPPC   C2B 1270   4.910  21.974   4.843  0.2346 -0.0788 -0.0875
    1DPPC   C3B 1271   4.738  22.221   4.565 -0.0435 -0.3519 -0.1501
    1DPPC   C4B 1272   4.584  22.257   4.150 -0.2407 -0.1007 -0.2801
    1DPPC   NC3 1273  29.090  17.734   6.372 -0.3256  0.0342  0.0642
    1DPPC   PO4 1274  29.252  17.944   6.186 -0.2424  0.0776 -0.0733
    1DPPC   GL1 1275  29.542  18.165   5.949 -0.5518  0.1403 -0.0405
    1DPPC   GL2 1276  29.860  18.413   5.975  0.4412  0.0610  0.1222
    1DPPC   C1A 1277  29.477  18.159   5.517 -0.1322 -0.1565  0.2496
    1DPPC   C2A 1278  29.407  18.210   5.089 -0.0831 -0.0465  0.0898
    1DPPC   C3A 1279  29.165  18.404   4.770  0.1990 -0.3144 -0.1829
    1DPPC   C4A 1280  29.136  18.643   4.415 -0.4148 -0.1078  0.2855
    1DPPC   C1B 1281  29.834  18.488   5.587 -0.0255 -0.0923  0.1178
    1DPPC   C2B 1282  29.768  18.602   5.224 -0.2688 -0.1017  0.2947
    1DPPC   C3B 1283  29.613  18.615   4.820  0.0278 -0.3279 -0.0343
    1DPPC   C4B 1284  29.688  18.645   4.372 -0.0688  0.0141 -0.3791
    1DPPC   NC3 1285   1.469  13.712   6.593  0.2587  0.0528 -0.0377
    1DPPC   PO4 1286   1.555  14.178   6.598 -0.3838 -0.0352 -0.1846
    1DPPC   GL1 1287   1.610  14.256   6.214 -0.1417 -0.0266  0.0885
    1DPPC   GL2 1288   1.684  14.525   6.116 -0.1729 -0.0490  0.2659
    1DPPC   C1A 1289   1.621  14.173   5.779  0.0010 -0.0510 -0.1227
    1DPPC   C2A 1290   1.516  14.133   5.368 -0.0689 -0.3194  0.0341
    1DPPC   C3A 1291   1.439  14.076   4.897 -0.2369 -0.3752  0.0863
    1DPPC   C4A 1292   1.472  14.006   4.388  0.1925 -0.0083 -0.0218
    1DPPC   C1B 1293   1.558  14.771   5.816  0.1652  0.1017 -0.0023
    1DPPC   C2B 1294   1.503  14.653   5.355  0.2638  0.1009 -0.1100
    1DPPC   C3B 1295   1.644  14.539   4.902  0.2978 -0.2137 -0.0769
    1DPPC   C4B 1296   1.455  14.501   4.535 -0.0368 -0.1122 -0.1859
    1DPPC   NC3 1297   3.749  20.966   6.675 -0.0543  0.1579 -0.3048
    1DPPC   PO4 1298   4.087  21.285   6.454 -0.1532  0.1298  0.2762
    1DPPC   GL1 1299   3.932  21.581   6.059  0.0117  0.0782 -0.0662
    1DPPC   GL2 1300   4.166  21.486   5.755  0.3079  0.0678  0.0355
    1DPPC   C1A 1301   3.654  21.789   5.790 -0.1458  0.2302  0.0400
    1DPPC   C2A 1302   3.563  22.105   5.464 -0.0958  0.2444 -0.2596
    1DPPC   C3A 1303   3.493  22.134   5.013 -0.0929 -0.0092  0.1434
    1DPPC   C4A 1304   3.640  22.362   4.571 -0.1567  0.0236 -0.1752
    1DPPC   C1B 1305   3.961  21.674   5.349 -0.1816  0.0296  0.0263
    1DPPC   C2B 1306   3.928  21.823   4.965  0.2654 -0.2074 -0.0540
    1DPPC   C3B 1307   3.897  21.757   4.622 -0.1505 -0.0716  0.2018
    1DPPC   C4B 1308   3.713  21.919   4.202  0.0328 -0.0967  0.0054
    1DPPC   NC3 1309   4.205  16.559   6.532  0.1255  0.2635 -0.1093
    1DPPC   PO4 1310   3.990  16.682   6.186  0.0312 -0.2266 -0.0534
    1DPPC   GL1 1311   3.900  16.627   5.803 -0.2295 -0.1404 -0.2955
    1DPPC   GL2 1312   3.691  16.957   5.748  0.0999 -0.1411  0.2781
    1DPPC   C1A 1313   4.011  16.467   5.362  0.1250  0.2385 -0.0724
    1DPPC   C2A 1314   4.008  16.450   4.888  0.0345 -0.0959  0.0046
    1DPPC   C3A 1315   4.173  16.346   4.581  0.1433  0.0371  0.1079
    1DPPC   C4A 1316   4.114  16.374   4.115  0.2480  0.2793  0.3482
    1DPPC   C1B 1317   3.718  16.843   5.347 -0.0280 -0.0155  0.0480
    1DPPC   C2B 1318   3.645  16.949   4.916  0.0446 -0.0362  0.1160
    1DPPC   C3B 1319   3.630  17.144   4.494 -0.0456 -0.0811 -0.0781
    1DPPC   C4B 1320   3.447  17.014   4.182  0.2641 -0.2049 -0.0314
    1DPPC   NC3 1321  26.820  19.879   6.619 -0.0195  0.1254 -0.0874
    1DPPC   PO4 1322  26.640  20.222   6.449  0.3017  0.2521 -0.0624
    1DPPC   GL1 1323  26.388  20.454   6.108 -0.2274 -0.0948  0.1632
    1DPPC   GL2 1324  26.189  20.619   6.037  0.1125 -0.2330  0.0522
    1DPPC   C1A 1325  26.552  20.591   5.718  0.0577  0.0029 -0.0687
    1DPPC   C2A 1326  26.562  20.780   5.345  0.2588 -0.0986 -0.1075
    1DPPC   C3A 1327  26.472  20.764   4.810 -0.4841 -0.1160  0.0558
    1DPPC   C4A 1328  26.728  20.553   4.484  0.1458 -0.1742  0.0452
    1DPPC   C1B 1329  26.104  20.647   5.596 -0.0636 -0.0241 -0.2415
    1DPPC   C2B 1330  26.048  20.596   5.163 -0.0518 -0.2632 -0.3253
    1DPPC   C3B 1331  26.071  20.503   4.735  0.1790  0.0179  0.0294
    1DPPC   C4B 1332  26.226  20.481   4.350 -0.0066  0.0906 -0.0679
    1DPPC   NC3 1333   4.211  10.361   6.153 -0.0078 -0.1357  0.2331
    1DPPC   PO4 1334   4.295  10.150   6.543 -0.2189 -0.2514  0.1230
    1DPPC   GL1 1335   4.445   9.846   6.196  0.0430  0.1226 -0.0091
    1DPPC   GL2 1336   4.521   9.559   6.289 -0.3942  0.1591 -0.1865
    1DPPC   C1A 1337   4.566   9.863   5.717 -0.1701 -0.0510  0.0234
    1DPPC   C2A 1338   4.575   9.827   5.270 -0.0070  0.1090  0.0501
    1DPPC   C3A 1339   4.693   9.646   4.836 -0.0871 -0.0078 -0.1845
    1DPPC   C4A 1340   5.126   9.591   4.688  0.0637  0.0825  0.0550
    1DPPC   C1B 1341   4.794   9.320   5.935  0.0244 -0.0191  0.0868
    1DPPC   C2B 1342   4.948   9.432   5.527  0.1599  0.0654 -0.3371
    1DPPC   C3B 1343   5.022   9.523   5.192 -0.2156  0.2009 -0.2810
    1DPPC   C4B 1344   5.041   9.938   5.110  0.4404 -0.1864  0.1199
    1DPPC   NC3 1345   0.125   8.479   6.962  0.1947 -0.1333 -0.0972
    1DPPC   PO4 1346  30.265   8.382   6.660 -0.0789 -0.0561  0.1480
    1DPPC   GL1 1347  30.246   8.143   6.384 -0.1595  0.1281 -0.1744
    1DPPC   GL2 1348   0.193   8.243   6.237 -0.0472 -0.1997 -0.0385
    1DPPC   C1A 1349  30.083   8.256   6.018  0.0419 -0.0843  0.0181
    1DPPC   C2A 1350  29.921   8.289   5.569  0.1137 -0.2394 -0.0506
    1DPPC   C3A 1351  30.162   8.315   5.109 -0.0953  0.0597  0.4185
    1DPPC   C4A 1352   0.078   8.001   5.082  0.0760 -0.2209  0.0319
    1DPPC   C1B 1353   0.223   8.426   5.886  0.0118 -0.0437  0.0397
    1DPPC   C2B 1354   0.004   8.737   5.558  0.0150 -0.0789 -0.1234
    1DPPC   C3B 1355   0.183   9.094   5.454 -0.2545  0.1311 -0.0136
    1DPPC   C4B 1356   0.232   9.234   5.089  0.1488  0.0067  0.0045
    1DPPC   NC3 1357  29.166  21.360   7.265 -0.4213 -0.1294 -0.1479
    1DPPC   PO4 1358  29.295  21.277   6.815 -0.1211 -0.4040 -0.0365
    1DPPC   GL1 1359  29.291  21.482   6.393 -0.0310 -0.0290  0.1114
    1DPPC   GL2 1360  29.076  21.754   6.350  0.1524  0.0159 -0.0412
    1DPPC   C1A 1361  29.281  21.566   5.959 -0.1580  0.4903  0.0188
    1DPPC   C2A 1362  29.189  21.705   5.671 -0.0105 -0.1299  0.2981
    1DPPC   C3A 1363  29.180  21.837   5.282 -0.2733  0.1819 -0.0483
    1DPPC   C4A 1364  29.363  21.880   4.865  0.1192 -0.0369  0.0661
    1DPPC   C1B 1365  29.085  22.060   6.013  0.0083  0.2503  0.0568
    1DPPC   C2B 1366  28.967  22.222   5.584  0.0231 -0.0533  0.1044
    1DPPC   C3B 1367  28.851  22.176   5.123 -0.2512 -0.0744  0.1655
    1DPPC   C4B 1368  28.920  22.051   4.701  0.0406  0.1760  0.2460
    1DPPC   NC3 1369   5.994  15.107   6.617 -0.0534 -0.2289  0.0105
    1DPPC   PO4 1370   5.768  15.402   6.425  0.1183  0.0421  0.0010
    1DPPC   GL1 1371   5.833  15.519   6.052  0.2225  0.0377 -0.0668
    1DPPC   GL2 1372   5.669  15.605   5.779  0.2018 -0.1982  0.1218
    1DPPC   C1A 1373   6.157  15.461   5.580 -0.0620 -0.1320  0.2150
    1DPPC   C2A 1374   6.053  15.272   5.123  0.0767 -0.0875 -0.0410
    1DPPC   C3A 1375   6.030  15.367   4.740 -0.1639 -0.0943  0.1139
    1DPPC   C4A 1376   6.253  15.418   4.385 -0.0539  0.2568  0.1138
    1DPPC   C1B 1377   5.648  15.508   5.317 -0.1918 -0.2822 -0.0167
    1DPPC   C2B 1378   5.561  15.307   4.966 -0.2282  0.2465 -0.3761
    1DPPC   C3B 1379   5.778  14.947   4.897 -0.0223  0.0920 -0.1427
    1DPPC   C4B 1380   5.837  14.618   4.679  0.1398  0.0802  0.1057
    1DPPC   NC3 1381  22.436  12.158   5.979 -0.2906 -0.3303 -0.0130
    1DPPC   PO4 1382  22.908  12.143   5.997 -0.0695  0.0009 -0.0835
    1DPPC   GL1 1383  23.119  12.307   5.584  0.2305 -0.0252  0.0781
    1DPPC   GL2 1384  23.065  12.751   5.565  0.1989 -0.1313 -0.0376
    1DPPC   C1A 1385  23.176  12.196   5.172  0.0539 -0.1109 -0.0977
    1DPPC   C2A 1386  23.301  12.325   4.746 -0.1316  0.0303 -0.1987
    1DPPC   C3A 1387  23.167  12.397   4.394  0.0178  0.2549  0.0935
    1DPPC   C4A 1388  22.812  12.409   4.060  0.0618  0.2080 -0.0272
    1DPPC   C1B 1389  23.196  12.705   5.160 -0.1063  0.0966  0.1956
    1DPPC   C2B 1390  23.278  12.835   4.753  0.0998 -0.2250  0.1808
    1DPPC   C3B 1391  23.200  12.922   4.363 -0.0899 -0.1266 -0.0710
    1DPPC   C4B 1392  23.316  13.245   4.060 -0.0296 -0.2050  0.2471
    1DPPC   NC3 1393   0.295  19.972   6.408  0.2467  0.2147  0.1817
    1DPPC   PO4 1394   0.057  20.257   6.428  0.1898 -0.0732 -0.2198
    1DPPC   GL1 1395  30.308  20.295   6.039 -0.0785  0.0646  0.0051
    1DPPC   GL2 1396   0.099  20.363   5.825  0.1462 -0.0323  0.0483
    1DPPC   C1A 1397  30.088  20.561   5.622 -0.1009 -0.3307  0.1023
    1DPPC   C2A 1398  29.947  20.636   5.340  0.2184  0.1907  0.2245
    1DPPC   C3A 1399  30.007  20.610   4.980  0.0998  0.1317 -0.1058
    1DPPC   C4A 1400  30.078  20.619   4.563 -0.0135  0.1080  0.0302
    1DPPC   C1B 1401   0.244  20.140   5.557  0.1819  0.0926 -0.1950
    1DPPC   C2B 1402   0.301  19.910   5.184  0.0907 -0.1980  0.0662
    1DPPC   C3B 1403   0.192  19.818   4.793 -0.0753  0.2548  0.3597
    1DPPC   C4B 1404   0.287  19.744   4.399 -0.0283  0.1904  0.4245
    1DPPC   NC3 1405   4.553  12.067   6.827 -0.0406 -0.1001 -0.1627
    1DPPC   PO4 1406   4.829  12.210   6.443  0.2476 -0.1881  0.0603
    1DPPC   GL1 1407   5.088  12.333   6.026  0.1670 -0.0715 -0.0832
    1DPPC   GL2 1408   4.899  12.263   5.699  0.3483  0.3018  0.0754
    1DPPC   C1A 1409   5.422  12.404   5.737 -0.1719 -0.0244  0.0967
    1DPPC   C2A 1410   5.348  12.366   5.272 -0.4578  0.2112  0.0420
    1DPPC   C3A 1411   5.426  12.186   4.891  0.0087  0.2159  0.0153
    1DPPC   C4A 1412   5.795  12.087   4.601 -0.3466  0.1926 -0.0852
    1DPPC   C1B 1413   4.576  11.826   5.725 -0.0951 -0.0721 -0.3416
    1DPPC   C2B 1414   4.214  11.997   5.610  0.1577  0.1891 -0.4195
    1DPPC   C3B 1415   3.995  12.354   5.474 -0.0998  0.2754 -0.3595
    1DPPC   C4B 1416   4.021  12.749   5.557  0.0019 -0.0349 -0.0313
    1DPPC   NC3 1417   0.540  21.677   6.847  0.0265  0.0524  0.0681
    1DPPC   PO4 1418   0.365  21.899   6.445 -0.0539  0.0302  0.1136
    1DPPC   GL1 1419   0.129  21.718   6.125  0.0289  0.1508 -0.2019
    1DPPC   GL2 1420  30.256  21.544   6.179  0.0328  0.0981 -0.1862
    1DPPC   C1A 1421   0.173  21.858   5.640 -0.1654 -0.2636  0.3570
    1DPPC   C2A 1422   0.232  21.883   5.208 -0.0612  0.0272  0.0799
    1DPPC   C3A 1423   0.265  21.981   4.757 -0.0504 -0.3647  0.2452
    1DPPC   C4A 1424   0.383  21.906   4.358 -0.1297  0.6626 -0.3811
    1DPPC   C1B 1425  30.078  21.709   5.744  0.1606 -0.0207 -0.1472
    1DPPC   C2B 1426  30.078  21.708   5.395  0.0420 -0.0257 -0.0320
    1DPPC   C3B 1427  30.266  21.621   4.949 -0.1411 -0.3121  0.0695
    1DPPC   C4B 1428  30.139  21.795   4.610  0.1001  0.2410  0.2098
    1DPPC   NC3 1429   0.207  28.066   7.975  0.2321  0.0434  0.1381
    1DPPC   PO4 1430   0.375  28.261   7.478  0.1045  0.1074 -0.0491
    1DPPC   GL1 1431   0.366  27.961   7.111  0.1381 -0.0647  0.0101
    1DPPC   GL2 1432   0.022  27.878   6.915 -0.0462 -0.0036  0.2460
    1DPPC   C1A 1433   0.514  27.691   6.760 -0.0848  0.1319  0.1418
    1DPPC   C2A 1434   0.524  27.352   6.604  0.4677 -0.2427  0.0418
    1DPPC   C3A 1435   0.141  27.196   6.408 -0.1888  0.0505 -0.0765
    1DPPC   C4A 1436  30.058  27.095   6.212  0.1435 -0.0995  0.0751
    1DPPC   C1B 1437   0.042  27.749   6.478 -0.2078 -0.2881  0.2327
    1DPPC   C2B 1438  30.265  28.001   6.195  0.0099 -0.4583  0.0359
    1DPPC   C3B 1439  29.998  28.201   5.825 -0.0346 -0.0188 -0.2093
    1DPPC   C4B 1440  29.582  28.199   5.499 -0.3921 -0.2436 -0.0732
    1DPPC   NC3 1441   6.660   7.828   7.071  0.1522  0.0471  0.1070
    1DPPC   PO4 1442   6.797   7.680   6.616  0.0716  0.0602  0.0740
    1DPPC   GL1 1443   6.934   7.498   6.235 -0.1243  0.1955  0.2312
    1DPPC   GL2 1444   7.172   7.148   6.218 -0.0025 -0.0630 -0.1104
    1DPPC   C1A 1445   6.855   7.490   5.822 -0.0070  0.2544 -0.2647
    1DPPC   C2A 1446   6.763   7.765   5.422 -0.0742 -0.3537 -0.4273
    1DPPC   C3A 1447   7.007   8.032   5.127  0.0498  0.2260 -0.1066
    1DPPC   C4A 1448   7.154   8.461   5.087 -0.0471 -0.1575 -0.1890
    1DPPC   C1B 1449   6.819   7.047   6.000 -0.0361  0.4887 -0.1147
    1DPPC   C2B 1450   6.694   6.941   5.622 -0.2725 -0.4396 -0.0603
    1DPPC   C3B 1451   6.769   7.216   5.227  0.5012  0.0265 -0.4261
    1DPPC   C4B 1452   6.858   7.239   4.782 -0.3268 -0.0720  0.1652
    1DPPC   NC3 1453   1.617  22.025   6.629  0.1771 -0.0097 -0.0553
    1DPPC   PO4 1454   1.254  22.195   6.696 -0.2275  0.1377  0.2839
    1DPPC   GL1 1455   1.420  22.517   6.448 -0.3551  0.2788  0.1636
    1DPPC   GL2 1456   1.525  22.585   6.599  0.0694 -0.1496 -0.1842
    1DPPC   C1A 1457   1.367  22.628   6.020  0.1292  0.2756 -0.2343
    1DPPC   C2A 1458   1.401  22.604   5.504  0.1401 -0.1323  0.1689
    1DPPC   C3A 1459   1.353  22.681   5.118  0.1426  0.0873  0.1903
    1DPPC   C4A 1460   1.345  23.050   4.837 -0.1303  0.0859  0.2001
    1DPPC   C1B 1461   1.655  22.880   6.245  0.0187  0.0040 -0.1371
    1DPPC   C2B 1462   1.622  23.051   5.832 -0.0503 -0.0939 -0.1313
    1DPPC   C3B 1463   1.489  23.119   5.442  0.5419 -0.1031 -0.2186
    1DPPC   C4B 1464   1.569  23.439   5.093  0.1330 -0.0066 -0.2106
    1DPPC   NC3 1465  28.373  21.341   6.649  0.0274  0.0782  0.0106
    1DPPC   PO4 1466  28.362  21.772   6.797  0.1976  0.0526  0.1362
    1DPPC   GL1 1467  28.035  21.785   6.425 -0.2745 -0.0742 -0.0031
    1DPPC   GL2 1468  27.888  21.501   6.426 -0.2425 -0.0372  0.1291
    1DPPC   C1A 1469  28.055  21.892   6.031 -0.1343 -0.3962  0.0457
    1DPPC   C2A 1470  28.018  21.974   5.476 -0.0582  0.1047 -0.0603
    1DPPC   C3A 1471  28.004  22.123   4.946  0.2630  0.0540 -0.1595
    1DPPC   C4A 1472  27.992  22.291   4.536 -0.1409  0.3534  0.1569
    1DPPC   C1B 1473  27.745  21.480   6.047  0.1129 -0.0047 -0.0843
    1DPPC   C2B 1474  27.621  21.670   5.696  0.1193  0.1573 -0.2469
    1DPPC   C3B 1475  27.620  21.714   5.320 -0.1674 -0.1258  0.0113
    1DPPC   C4B 1476  27.604  21.874   4.867 -0.1416  0.1649 -0.0063
    1DPPC   NC3 1477  26.307  22.461   6.615 -0.0639  0.1033  0.1925
    1DPPC   PO4 1478  26.689  22.339   6.426 -0.1681  0.1981  0.0813
    1DPPC   GL1 1479  26.838  22.135   6.051 -0.0980  0.1103 -0.4474
    1DPPC   GL2 1480  27.053  22.355   6.019 -0.2473  0.1104 -0.1757
    1DPPC   C1A 1481  26.622  21.950   5.694 -0.0091 -0.0912 -0.2857
    1DPPC   C2A 1482  26.612  22.039   5.281  0.0124 -0.0663  0.0992
    1DPPC   C3A 1483  26.650  22.114   4.896  0.0641 -0.0849  0.2299
    1DPPC   C4A 1484  26.642  22.021   4.500  0.0236 -0.1292 -0.0176
    1DPPC   C1B 1485  26.932  22.363   5.501 -0.2845 -0.0381  0.0551
    1DPPC   C2B 1486  27.042  22.471   5.037 -0.0127  0.0715  0.1323
    1DPPC   C3B 1487  27.051  22.336   4.511  0.1982 -0.0235 -0.0276
    1DPPC   C4B 1488  27.101  21.907   4.193  0.2206 -0.2070 -0.1546
    1DPPC   NC3 1489   6.275   9.469   6.383 -0.1053  0.1890  0.0378
    1DPPC   PO4 1490   5.942   9.475   6.702 -0.0375 -0.1821  0.1213
    1DPPC   GL1 1491   5.911   9.767   6.316  0.1097 -0.0111 -0.2195
    1DPPC   GL2 1492   6.251   9.946   6.135  0.1803  0.2939  0.0311
    1DPPC   C1A 1493   5.713   9.880   5.870 -0.1521 -0.2087 -0.2739
    1DPPC   C2A 1494   5.915  10.029   5.473 -0.3464  0.1629 -0.0194
    1DPPC   C3A 1495   6.015  10.122   5.055  0.2053 -0.3185 -0.0444
    1DPPC   C4A 1496   5.992  10.418   4.813  0.0884  0.4205 -0.1320
    1DPPC   C1B 1497   6.133   9.674   5.775 -0.2623 -0.1421 -0.1287
    1DPPC   C2B 1498   6.206   9.560   5.312  0.1575 -0.2125 -0.1550
    1DPPC   C3B 1499   5.999   9.650   5.055  0.1170 -0.1864  0.1204
    1DPPC   C4B 1500   5.895   9.690   4.577  0.1401 -0.4703 -0.0593
    1DPPC   NC3 1501   0.548  14.050   6.779 -0.0373 -0.2072  0.1485
    1DPPC   PO4 1502   0.713  13.841   6.493 -0.3901 -0.2127  0.4273
    1DPPC   GL1 1503   0.801  13.714   6.124  0.0443 -0.2467 -0.3155
    1DPPC   GL2 1504   0.871  13.976   5.950  0.1342  0.0338 -0.4245
    1DPPC   C1A 1505   0.637  13.511   5.807  0.2667  0.1824 -0.4652
    1DPPC   C2A 1506   0.733  13.519   5.355  0.1664  0.0340 -0.0927
    1DPPC   C3A 1507   0.778  13.432   4.981 -0.2309 -0.0520 -0.1014
    1DPPC   C4A 1508   1.158  13.158   4.732  0.1033 -0.0173  0.0543
    1DPPC   C1B 1509   0.691  13.977   5.502  0.3534  0.0048 -0.0615
    1DPPC   C2B 1510   0.712  13.931   5.094 -0.1386 -0.1730  0.0445
    1DPPC   C3B 1511   0.883  13.816   4.626  0.5504  0.0634 -0.0578
    1DPPC   C4B 1512   0.806  13.404   4.346  0.1098  0.1357 -0.1157
    1DPPC   NC3 1513  25.501  10.721   6.291 -0.0691  0.0388 -0.0068
    1DPPC   PO4 1514  25.812  10.752   6.021 -0.1126 -0.1877 -0.0276
    1DPPC   GL1 1515  25.868  10.863   5.627  0.2052 -0.3509  0.1174
    1DPPC   GL2 1516  25.666  11.091   5.508 -0.1810 -0.0424  0.2268
    1DPPC   C1A 1517  26.114  10.802   5.230 -0.0945  0.0770  0.1163
    1DPPC   C2A 1518  26.223  10.638   4.830 -0.0245 -0.1187 -0.1347
    1DPPC   C3A 1519  26.321  10.435   4.394 -0.1324  0.0087 -0.1060
    1DPPC   C4A 1520  26.644  10.722   4.207 -0.1798  0.0683 -0.0537
    1DPPC   C1B 1521  25.673  10.727   5.164  0.3513  0.0397  0.5486
    1DPPC   C2B 1522  25.742  10.448   4.835 -0.1592 -0.1610 -0.1722
    1DPPC   C3B 1523  25.817  10.236   4.497 -0.1164 -0.1395  0.1367
    1DPPC   C4B 1524  25.930   9.877   4.430  0.0039 -0.0346 -0.0944
    1DPPC   NC3 1525  23.595   8.291   6.313  0.2512 -0.1460 -0.0534
    1DPPC   PO4 1526  23.323   8.390   6.013  0.0373  0.0860  0.0566
    1DPPC   GL1 1527  23.343   8.162   5.467  0.0814  0.0712  0.1602
    1DPPC   GL2 1528  23.565   8.283   5.259 -0.0611  0.1043 -0.0996
    1DPPC   C1A 1529  23.591   7.758   5.319 -0.2642  0.2040 -0.1012
    1DPPC   C2A 1530  23.808   7.440   5.357  0.2912 -0.0782  0.0457
    1DPPC   C3A 1531  23.936   7.182   5.051 -0.2235  0.0200 -0.3717
    1DPPC   C4A 1532  23.718   6.877   4.837  0.0860 -0.1653 -0.0362
    1DPPC   C1B 1533  23.764   8.416   4.787 -0.2070 -0.4840 -0.0272
    1DPPC   C2B 1534  23.492   8.583   4.588  0.0396 -0.2936  0.2006
    1DPPC   C3B 1535  23.304   8.788   4.280 -0.0261 -0.0817  0.4229
    1DPPC   C4B 1536  22.922   8.611   4.121  0.0264 -0.2439 -0.1706
    1DPPC   NC3 1537  23.946  11.807   5.953  0.1707  0.0894 -0.1869
    1DPPC   PO4 1538  24.458  12.042   5.933 -0.1494  0.2375 -0.0294
    1DPPC   GL1 1539  24.643  11.919   5.523  0.0908  0.0094 -0.2096
    1DPPC   GL2 1540  24.939  11.847   5.512 -0.0108  0.1168  0.3569
    1DPPC   C1A 1541  24.541  11.970   5.159 -0.0894 -0.1898  0.2505
    1DPPC   C2A 1542  24.608  12.084   4.696 -0.1665 -0.2994 -0.0604
    1DPPC   C3A 1543  24.947  11.971   4.477 -0.4448 -0.5525 -0.1776
    1DPPC   C4A 1544  25.340  12.019   4.245  0.0730  0.0936  0.1658
    1DPPC   C1B 1545  24.895  11.593   5.045  0.0115 -0.1550 -0.0617
    1DPPC   C2B 1546  25.268  11.548   4.714  0.1726 -0.0850  0.1263
    1DPPC   C3B 1547  25.662  11.650   4.475  0.3312 -0.0220  0.0124
    1DPPC   C4B 1548  25.877  11.855   4.087  0.1323 -0.0137 -0.2579
    1DPPC   NC3 1549   9.479  12.441   7.572  0.1288  0.0889 -0.2365
    1DPPC   PO4 1550   9.364  12.490   7.132 -0.0634  0.0619  0.1917
    1DPPC   GL1 1551   9.637  12.467   6.792 -0.3286 -0.2675 -0.2285
    1DPPC   GL2 1552   9.975  12.623   6.793  0.1301 -0.1130 -0.0334
    1DPPC   C1A 1553   9.635  12.471   6.344 -0.2518 -0.2545 -0.2969
    1DPPC   C2A 1554   9.531  12.739   6.015  0.0132 -0.1290  0.0851
    1DPPC   C3A 1555   9.397  12.711   5.647 -0.0337  0.1619  0.2732
    1DPPC   C4A 1556   9.583  12.606   5.355  0.1252 -0.0651 -0.2437
    1DPPC   C1B 1557  10.098  12.661   6.392 -0.0124  0.0449 -0.1137
    1DPPC   C2B 1558  10.049  12.867   6.068  0.1098 -0.0634  0.1074
    1DPPC   C3B 1559   9.851  13.059   5.766 -0.0884  0.1130 -0.2280
    1DPPC   C4B 1560   9.857  13.040   5.368  0.2704  0.2176 -0.0079
    1DPPC   NC3 1561   3.392  18.494   6.469 -0.0170  0.1616  0.0189
    1DPPC   PO4 1562   3.640  18.689   6.288 -0.1122  0.1263  0.2452
    1DPPC   GL1 1563   3.269  18.797   6.018 -0.0419 -0.1444 -0.1914
    1DPPC   GL2 1564   3.416  18.891   5.740 -0.0960 -0.1006 -0.0205
    1DPPC   C1A 1565   3.029  18.544   5.716 -0.1241 -0.2579 -0.2982
    1DPPC   C2A 1566   2.903  18.208   5.574  0.0489 -0.1704 -0.2813
    1DPPC   C3A 1567   2.977  18.110   5.118 -0.1146 -0.0106 -0.1208
    1DPPC   C4A 1568   2.954  18.046   4.660 -0.0708 -0.1257  0.0309
    1DPPC   C1B 1569   3.112  18.895   5.306 -0.1999  0.1340 -0.0792
    1DPPC   C2B 1570   3.155  18.933   4.852 -0.1505  0.0952 -0.1504
    1DPPC   C3B 1571   2.973  18.979   4.411 -0.2604 -0.2355 -0.1562
    1DPPC   C4B 1572   3.072  19.131   3.993  0.0555  0.1925 -0.0688
    1DPPC   NC3 1573  29.679  19.706   6.214 -0.3421  0.2129  0.3043
    1DPPC   PO4 1574  29.430  20.112   6.115  0.2727 -0.0593  0.1743
    1DPPC   GL1 1575  29.320  20.020   5.825 -0.1687  0.2519  0.1530
    1DPPC   GL2 1576  29.428  19.755   5.683 -0.0175 -0.0929  0.0953
    1DPPC   C1A 1577  29.028  20.158   5.505  0.0024 -0.1187 -0.1237
    1DPPC   C2A 1578  28.973  20.311   5.118 -0.0677  0.3707 -0.0401
    1DPPC   C3A 1579  28.970  20.363   4.627 -0.1980 -0.3631  0.3354
    1DPPC   C4A 1580  28.801  20.193   4.306 -0.1842  0.0612  0.2553
    1DPPC   C1B 1581  29.355  19.921   5.267 -0.1047 -0.0986 -0.0336
    1DPPC   C2B 1582  29.368  19.972   4.914  0.0171 -0.2287 -0.0144
    1DPPC   C3B 1583  29.350  20.035   4.462 -0.2346  0.2093 -0.1030
    1DPPC   C4B 1584  29.300  20.425   4.191 -0.1289 -0.1613  0.1843
    1DPPC   NC3 1585  23.786  12.797   6.150 -0.2163 -0.0866  0.0206
    1DPPC   PO4 1586  23.723  13.172   5.982 -0.2695 -0.3662  0.0023
    1DPPC   GL1 1587  23.706  13.364   5.529  0.0104 -0.1335  0.1333
    1DPPC   GL2 1588  23.507  13.620   5.577 -0.1766 -0.0490  0.2147
    1DPPC   C1A 1589  23.841  13.554   5.105 -0.0936 -0.1399 -0.0271
    1DPPC   C2A 1590  23.994  13.443   4.784  0.1851  0.0680  0.5887
    1DPPC   C3A 1591  24.206  13.366   4.453  0.2307  0.1226  0.0205
    1DPPC   C4A 1592  24.338  13.223   3.941 -0.2439  0.0171 -0.2282
    1DPPC   C1B 1593  23.216  13.657   5.183  0.0402  0.2347  0.0772
    1DPPC   C2B 1594  23.363  13.407   4.836 -0.0713  0.1745 -0.1867
    1DPPC   C3B 1595  23.569  13.180   4.505 -0.0723 -0.2944  0.1778
    1DPPC   C4B 1596  23.627  12.717   4.414 -0.0113 -0.0576  0.3834
    1DPPC   NC3 1597   9.167  17.239   5.847 -0.2592 -0.1117 -0.0282
    1DPPC   PO4 1598   8.767  17.512   5.920 -0.1215 -0.1222  0.2190
    1DPPC   GL1 1599   8.491  17.694   5.598  0.1374 -0.2588  0.2553
    1DPPC   GL2 1600   8.231  17.465   5.528 -0.0490  0.3757 -0.0986
    1DPPC   C1A 1601   8.410  17.691   5.126 -0.1022  0.0803 -0.1869
    1DPPC   C2A 1602   8.398  17.684   4.623 -0.1189 -0.1364 -0.0548
    1DPPC   C3A 1603   8.515  17.733   4.279 -0.0049 -0.1830  0.0929
    1DPPC   C4A 1604   8.398  17.948   4.018  0.0472  0.1076 -0.0637
    1DPPC   C1B 1605   8.172  17.161   5.207 -0.0253  0.0685  0.0987
    1DPPC   C2B 1606   8.049  17.212   4.896 -0.2391 -0.0799 -0.1714
    1DPPC   C3B 1607   8.005  17.309   4.529 -0.0278  0.1719 -0.4596
    1DPPC   C4B 1608   8.125  17.519   4.107 -0.4240  0.0517 -0.4062
    1DPPC   NC3 1609  25.202  16.950   6.298 -0.0703  0.1096 -0.2060
    1DPPC   PO4 1610  24.786  17.026   6.049 -0.1753 -0.0036 -0.0965
    1DPPC   GL1 1611  25.079  16.971   5.686 -0.3624 -0.0053  0.2172
    1DPPC   GL2 1612  25.194  17.345   5.471 -0.1789 -0.0101  0.0487
    1DPPC   C1A 1613  25.334  16.686   5.397 -0.2980 -0.2654 -0.1191
    1DPPC   C2A 1614  25.318  16.663   4.991  0.1217  0.0187 -0.3225
    1DPPC   C3A 1615  24.928  16.721   4.741 -0.1151  0.1111  0.0178
    1DPPC   C4A 1616  24.737  17.139   4.804  0.1445  0.3276 -0.2375
    1DPPC   C1B 1617  25.098  17.106   5.162 -0.1721  0.2190 -0.0268
    1DPPC   C2B 1618  25.316  17.188   4.700  0.1791  0.0829  0.0302
    1DPPC   C3B 1619  25.255  17.514   4.412  0.0528 -0.1079  0.0682
    1DPPC   C4B 1620  25.449  17.624   3.987 -0.0276  0.2081 -0.0332
    1DPPC   NC3 1621  27.049  22.686   6.423 -0.0769 -0.1640 -0.1002
    1DPPC   PO4 1622  27.341  22.983   6.382 -0.2791 -0.0998  0.3114
    1DPPC   GL1 1623  27.084  23.080   6.091  0.1053 -0.0802 -0.0759
    1DPPC   GL2 1624  26.746  23.173   6.165 -0.0294  0.0970  0.0506
    1DPPC   C1A 1625  27.144  23.182   5.628 -0.1018 -0.1416 -0.0218
    1DPPC   C2A 1626  27.262  23.242   5.125  0.3261 -0.0038 -0.0534
    1DPPC   C3A 1627  27.246  23.439   4.768 -0.1330 -0.2607  0.1836
    1DPPC   C4A 1628  27.237  23.522   4.319 -0.1604  0.0601  0.0088
    1DPPC   C1B 1629  26.795  22.854   5.753 -0.0728  0.2735 -0.1313
    1DPPC   C2B 1630  26.870  22.931   5.208  0.2373  0.5711 -0.2812
    1DPPC   C3B 1631  27.037  22.945   4.801  0.3649  0.0267 -0.1042
    1DPPC   C4B 1632  27.276  23.056   4.420  0.2663 -0.0011  0.0333
    1DPPC   NC3 1633  14.305  24.522   6.503 -0.1901 -0.0883 -0.0377
    1DPPC   PO4 1634  13.914  24.783   6.584  0.2013 -0.1432  0.0531
    1DPPC   GL1 1635  13.935  24.629   6.183 -0.1836  0.3027 -0.2600
    1DPPC   GL2 1636  14.277  24.647   6.055 -0.1979 -0.0653  0.1033
    1DPPC   C1A 1637  13.869  24.625   5.693 -0.1001 -0.1450  0.3707
    1DPPC   C2A 1638  14.024  24.533   5.290 -0.3846 -0.0487  0.0571
    1DPPC   C3A 1639  13.938  24.557   4.845  0.1028 -0.3406  0.2915
    1DPPC   C4A 1640  13.505  24.488   4.683 -0.0890  0.3399  0.2062
    1DPPC   C1B 1641  14.166  25.048   5.831  0.1340  0.2146 -0.1375
    1DPPC   C2B 1642  14.068  25.276   5.443 -0.0082  0.1529 -0.2676
    1DPPC   C3B 1643  14.122  25.469   5.105 -0.0559  0.0024 -0.0282
    1DPPC   C4B 1644  14.302  25.746   4.973  0.1828  0.0491  0.1390
    1DPPC   NC3 1645   5.310   8.817   7.155  0.2510 -0.2711  0.2215
    1DPPC   PO4 1646   5.351   9.122   6.788  0.1361 -0.2781 -0.2960
    1DPPC   GL1 1647   5.528   9.106   6.347 -0.2683  0.2195  0.3056
    1DPPC   GL2 1648   5.763   9.268   6.312 -0.1903 -0.1798 -0.1723
    1DPPC   C1A 1649   5.431   9.037   5.913 -0.1419 -0.1443 -0.0769
    1DPPC   C2A 1650   5.281   8.688   5.603 -0.2334  0.1355  0.0990
    1DPPC   C3A 1651   5.338   8.455   5.253 -0.1575  0.2999  0.1182
    1DPPC   C4A 1652   5.522   8.244   4.790 -0.3546  0.0930  0.1212
    1DPPC   C1B 1653   5.797   9.365   5.961 -0.1820 -0.0528 -0.0353
    1DPPC   C2B 1654   5.559   9.389   5.559 -0.0546 -0.2395  0.0569
    1DPPC   C3B 1655   5.371   9.168   5.273 -0.1299  0.0031 -0.0541
    1DPPC   C4B 1656   5.270   9.048   4.923  0.2845 -0.3958  0.3112
    1DPPC   NC3 1657   0.250  20.752   6.310 -0.2782  0.0379 -0.0672
    1DPPC   PO4 1658   0.130  21.146   6.486  0.0409  0.2935 -0.1432
    1DPPC   GL1 1659   0.305  21.162   6.048  0.1273 -0.0188  0.0376
    1DPPC   GL2 1660   0.202  20.834   5.805 -0.2200 -0.1208 -0.0719
    1DPPC   C1A 1661   0.384  21.412   5.740  0.1156  0.1130  0.2112
    1DPPC   C2A 1662   0.375  21.402   5.333  0.0116  0.0453  0.1448
    1DPPC   C3A 1663   0.420  21.474   4.845  0.0624 -0.3128  0.1849
    1DPPC   C4A 1664   0.664  21.531   4.518  0.0901  0.0352  0.0592
    1DPPC   C1B 1665   0.144  20.684   5.376 -0.0806 -0.1351 -0.0349
    1DPPC   C2B 1666   0.118  20.486   5.131 -0.1409  0.0656 -0.1865
    1DPPC   C3B 1667   0.187  20.677   4.693  0.0853  0.1541  0.2131
    1DPPC   C4B 1668   0.164  20.641   4.218  0.2886  0.0318  0.3450
    1DPPC   NC3 1669  25.838  22.273   7.042  0.3281 -0.0745  0.1534
    1DPPC   PO4 1670  25.658  22.421   6.604 -0.2629 -0.0270 -0.3171
    1DPPC   GL1 1671  25.880  22.389   6.239  0.0906  0.3188 -0.0364
    1DPPC   GL2 1672  26.156  22.161   6.208 -0.1000  0.0901 -0.0893
    1DPPC   C1A 1673  26.022  22.639   5.992 -0.1230 -0.3810 -0.0637
    1DPPC   C2A 1674  25.824  22.883   5.617  0.0219  0.1113  0.0797
    1DPPC   C3A 1675  25.550  22.939   5.240  0.3169 -0.0052 -0.1347
    1DPPC   C4A 1676  25.466  23.237   4.932  0.2801 -0.1831  0.0840
    1DPPC   C1B 1677  26.099  22.061   5.886 -0.0309 -0.0987 -0.0610
    1DPPC   C2B 1678  26.112  22.135   5.483 -0.0863  0.0296 -0.0543
    1DPPC   C3B 1679  26.151  22.112   5.046 -0.0308  0.1375  0.2909
    1DPPC   C4B 1680  26.207  22.232   4.667  0.0392 -0.1829  0.1681
    1DPPC   NC3 1681  19.472   3.089   6.872  0.1292 -0.1939 -0.2868
    1DPPC   PO4 1682  19.298   3.029   6.413  0.1433  0.2263 -0.1865
    1DPPC   GL1 1683  19.153   2.719   6.072 -0.0140 -0.0562 -0.0965
    1DPPC   GL2 1684  19.058   2.387   6.137  0.1806 -0.1764  0.1508
    1DPPC   C1A 1685  19.272   2.683   5.634  0.0123  0.2081 -0.1320
    1DPPC   C2A 1686  18.920   2.701   5.344  0.0589  0.0331  0.1452
    1DPPC   C3A 1687  18.680   2.561   4.986 -0.0108  0.0754 -0.4592
    1DPPC   C4A 1688  18.401   2.403   4.647  0.0268  0.0270 -0.1106
    1DPPC   C1B 1689  18.875   2.370   5.694 -0.0323  0.1020 -0.0963
    1DPPC   C2B 1690  18.476   2.543   5.459  0.2547  0.0098  0.2705
    1DPPC   C3B 1691  18.247   2.419   5.136 -0.1828 -0.0210  0.0176
    1DPPC   C4B 1692  17.773   2.647   4.927  0.0317  0.0138  0.0905
    1DPPC   NC3 1693  26.546  16.531   6.207 -0.0931  0.2298 -0.2590
    1DPPC   PO4 1694  26.148  16.345   6.258 -0.1008  0.2071  0.3440
    1DPPC   GL1 1695  26.016  16.158   5.849 -0.1623  0.0335 -0.2854
    1DPPC   GL2 1696  26.335  15.945   5.886 -0.2796  0.1322 -0.1396
    1DPPC   C1A 1697  25.956  16.107   5.375  0.0936  0.1120  0.0851
    1DPPC   C2A 1698  25.927  16.008   4.957 -0.1979  0.0106  0.0240
    1DPPC   C3A 1699  25.961  16.173   4.467  0.0902 -0.0913  0.2048
    1DPPC   C4A 1700  25.886  16.495   4.210 -0.1837  0.0037 -0.1098
    1DPPC   C1B 1701  26.339  15.834   5.456  0.0050 -0.1994 -0.1080
    1DPPC   C2B 1702  26.352  15.809   5.003  0.1251  0.1385 -0.1033
    1DPPC   C3B 1703  26.243  15.671   4.642 -0.0193 -0.2450 -0.1120
    1DPPC   C4B 1704  25.864  15.649   4.504  0.0904  0.0297  0.0475
    1DPPC   NC3 1705   2.703  15.629   6.149 -0.0591  0.0725 -0.4423
    1DPPC   PO4 1706   2.274  15.840   6.228  0.0417  0.1615 -0.1221
    1DPPC   GL1 1707   2.015  15.818   5.894 -0.2529 -0.0003  0.2465
    1DPPC   GL2 1708   1.935  16.052   5.847 -0.1741  0.1819  0.0565
    1DPPC   C1A 1709   1.869  15.598   5.609 -0.0527 -0.2071 -0.0249
    1DPPC   C2A 1710   1.776  15.557   5.176  0.1116 -0.1739  0.1502
    1DPPC   C3A 1711   1.753  15.502   4.814 -0.2671  0.0821  0.0085
    1DPPC   C4A 1712   1.649  15.524   4.466  0.3428  0.0471 -0.1772
    1DPPC   C1B 1713   1.882  16.030   5.339  0.0673  0.1433  0.0484
    1DPPC   C2B 1714   1.890  16.143   4.927  0.0321 -0.1513 -0.2398
    1DPPC   C3B 1715   1.834  16.010   4.610  0.0842 -0.0880 -0.1985
    1DPPC   C4B 1716   1.891  15.839   4.143  0.1022  0.0897 -0.0211
    1DPPC   NC3 1717  29.964   6.906   6.446 -0.0128 -0.2358  0.1039
    1DPPC   PO4 1718  30.264   7.240   6.532 -0.1983 -0.0877  0.2576
    1DPPC   GL1 1719  30.227   7.602   6.308  0.0019  0.5581  0.1448
    1DPPC   GL2 1720  29.893   7.688   6.164  0.0787 -0.0312  0.2479
    1DPPC   C1A 1721   0.076   7.817   6.000 -0.1544  0.1406 -0.0342
    1DPPC   C2A 1722   0.102   8.019   5.600 -0.0487 -0.1012  0.4263
    1DPPC   C3A 1723   0.282   8.415   5.363 -0.2904 -0.0019  0.1999
    1DPPC   C4A 1724   0.288   8.757   5.069  0.1170 -0.0751 -0.1511
    1DPPC   C1B 1725  29.873   7.853   5.814 -0.0236 -0.1186 -0.0502
    1DPPC   C2B 1726  29.980   7.857   5.339  0.0447 -0.0345 -0.6082
    1DPPC   C3B 1727  29.947   7.791   4.904  0.0936 -0.2065  0.0215
    1DPPC   C4B 1728  29.841   7.777   4.400  0.4604  0.0552 -0.1725
    1DPPC   NC3 1729   1.190  19.642   6.029  0.0334 -0.3075  0.3030
    1DPPC   PO4 1730   0.725  19.448   6.092 -0.2436 -0.0760  0.0905
    1DPPC   GL1 1731   0.768  19.294   5.721 -0.0008  0.1202 -0.1325
    1DPPC   GL2 1732   0.963  19.491   5.640  0.2174  0.0973 -0.0296
    1DPPC   C1A 1733   0.832  19.006   5.550  0.2215  0.1449  0.2317
    1DPPC   C2A 1734   0.838  18.907   5.229  0.1917 -0.0775  0.2669
    1DPPC   C3A 1735   0.858  18.807   4.855 -0.1673 -0.0284 -0.2365
    1DPPC   C4A 1736   0.900  18.616   4.472 -0.0248 -0.1176  0.1528
    1DPPC   C1B 1737   0.960  19.388   5.220  0.2242  0.0127 -0.1671
    1DPPC   C2B 1738   0.969  19.257   4.726  0.0162 -0.1170 -0.0989
    1DPPC   C3B 1739   1.088  19.061   4.385  0.0968 -0.1316 -0.1032
    1DPPC   C4B 1740   1.229  18.693   4.090 -0.0914  0.0988 -0.0321
    1DPPC   NC3 1741   3.596  26.733   6.768  0.0095  0.1476  0.1080
    1DPPC   PO4 1742   3.551  27.159   6.918 -0.3223 -0.2583 -0.3501
    1DPPC   GL1 1743   3.427  27.119   6.518 -0.0532  0.3228 -0.0145
    1DPPC   GL2 1744   3.374  26.822   6.305 -0.0827 -0.1767  0.2257
    1DPPC   C1A 1745   3.537  27.223   6.118 -0.0203  0.0120  0.3246
    1DPPC   C2A 1746   3.358  27.288   5.766 -0.0486 -0.0015 -0.4872
    1DPPC   C3A 1747   3.140  27.349   5.471 -0.0139  0.0669 -0.1577
    1DPPC   C4A 1748   3.228  27.354   5.020  0.2319 -0.1480  0.0213
    1DPPC   C1B 1749   3.018  27.031   6.132  0.0074 -0.0461  0.0261
    1DPPC   C2B 1750   2.867  27.384   5.915  0.0507  0.0828  0.0187
    1DPPC   C3B 1751   2.633  27.471   5.567 -0.1799 -0.2540  0.0378
    1DPPC   C4B 1752   2.804  27.540   5.116  0.5700  0.0224 -0.0459
    1DPPC   NC3 1753  25.368  13.480   6.142  0.4978 -0.1868 -0.2609
    1DPPC   PO4 1754  25.028  13.651   6.013 -0.1740 -0.1319 -0.0200
    1DPPC   GL1 1755  25.284  13.556   5.632 -0.0412  0.0813  0.0799
    1DPPC   GL2 1756  25.067  13.431   5.460 -0.0512  0.1565  0.2165
    1DPPC   C1A 1757  25.622  13.484   5.425  0.2491  0.1064  0.2110
    1DPPC   C2A 1758  25.809  13.199   5.110 -0.0113 -0.0955  0.0062
    1DPPC   C3A 1759  25.774  12.993   4.782 -0.1699  0.1822  0.1793
    1DPPC   C4A 1760  25.861  12.728   4.435  0.0442 -0.1311 -0.0051
    1DPPC   C1B 1761  25.296  13.570   5.044 -0.3249 -0.0705  0.1036
    1DPPC   C2B 1762  25.704  13.502   4.740 -0.1489  0.2472  0.0210
    1DPPC   C3B 1763  26.185  13.264   4.823  0.1175 -0.0882  0.0016
    1DPPC   C4B 1764  26.508  13.017   4.693 -0.0315 -0.1033 -0.0090
    1DPPC   NC3 1765  28.051  16.977   6.375  0.2533 -0.0894 -0.0452
    1DPPC   PO4 1766  28.060  16.656   6.260  0.2187  0.1525 -0.0740
    1DPPC   GL1 1767  28.018  16.819   5.818 -0.0890 -0.0095 -0.1101
    1DPPC   GL2 1768  28.167  17.207   5.920 -0.0939  0.2877 -0.0993
    1DPPC   C1A 1769  28.007  16.834   5.397  0.0050  0.2311 -0.1050
    1DPPC   C2A 1770  27.829  16.777   4.960 -0.0118 -0.0333 -0.1263
    1DPPC   C3A 1771  27.846  17.080   4.632 -0.5097 -0.0701 -0.1916
    1DPPC   C4A 1772  27.587  17.107   4.277  0.2391 -0.0852  0.1133
    1DPPC   C1B 1773  28.102  17.329   5.565 -0.1526  0.0324 -0.0927
    1DPPC   C2B 1774  28.234  17.302   5.117 -0.0349  0.1433  0.1958
    1DPPC   C3B 1775  28.340  17.184   4.753 -0.1022 -0.0690 -0.2766
    1DPPC   C4B 1776  28.316  17.029   4.366  0.0007  0.0540  0.2303
    1DPPC   NC3 1777  29.281  12.267   6.655  0.2055  0.0656 -0.0935
    1DPPC   PO4 1778  29.661  12.329   6.446 -0.4689 -0.2049 -0.1303
    1DPPC   GL1 1779  29.486  12.379   6.111  0.0183 -0.2353  0.1798
    1DPPC   GL2 1780  29.376  12.630   5.919 -0.4904 -0.1385 -0.0810
    1DPPC   C1A 1781  29.681  12.297   5.633 -0.0234 -0.0723 -0.0626
    1DPPC   C2A 1782  29.610  12.266   5.228  0.1522 -0.0988  0.1232
    1DPPC   C3A 1783  29.582  12.337   4.839  0.1953  0.3016 -0.1435
    1DPPC   C4A 1784  29.694  12.134   4.497 -0.1485 -0.0530 -0.1562
    1DPPC   C1B 1785  29.194  12.559   5.488 -0.2199  0.0654  0.0771
    1DPPC   C2B 1786  29.140  12.510   5.027  0.0183  0.0480 -0.0722
    1DPPC   C3B 1787  29.146  12.394   4.595  0.1289  0.1377  0.1287
    1DPPC   C4B 1788  29.311  12.335   4.209 -0.0290  0.3326  0.1743
    1DPPC   NC3 1789  29.369  15.977   6.686 -0.2261  0.2646 -0.1069
    1DPPC   PO4 1790  29.679  16.200   6.436 -0.2582  0.2372 -0.0333
    1DPPC   GL1 1791  29.885  16.152   6.054 -0.0816  0.1104  0.1290
    1DPPC   GL2 1792  30.124  16.347   5.927  0.0231 -0.1994  0.2570
    1DPPC   C1A 1793  29.880  16.037   5.569 -0.0839 -0.2632 -0.1740
    1DPPC   C2A 1794  29.912  15.948   5.195  0.0438  0.0058  0.4609
    1DPPC   C3A 1795  29.951  15.876   4.743 -0.0711 -0.0068  0.2566
    1DPPC   C4A 1796  30.209  16.054   4.444 -0.0836  0.1581 -0.1768
    1DPPC   C1B 1797  29.853  16.517   5.640  0.0825  0.0463  0.1327
    1DPPC   C2B 1798  29.940  16.514   5.302 -0.1453 -0.1079 -0.1129
    1DPPC   C3B 1799  30.061  16.829   5.112 -0.0803  0.0524 -0.0617
    1DPPC   C4B 1800  29.864  17.261   5.024 -0.1130 -0.0977  0.2598
    1DPPC   NC3 1801  15.011  28.580   6.789  0.2951 -0.1113 -0.1992
    1DPPC   PO4 1802  15.210  28.224   6.713  0.0796 -0.2430  0.0875
    1DPPC   GL1 1803  15.122  28.121   6.253 -0.0588 -0.0484  0.1011
    1DPPC   GL2 1804  14.986  27.759   6.113 -0.0363 -0.1224  0.2973
    1DPPC   C1A 1805  15.114  28.108   5.784  0.2185  0.3349  0.3548
    1DPPC   C2A 1806  15.230  27.783   5.412 -0.0463 -0.2294  0.2973
    1DPPC   C3A 1807  15.265  27.463   5.112 -0.0123 -0.2161 -0.1489
    1DPPC   C4A 1808  15.506  27.124   4.948 -0.0006 -0.0604 -0.1464
    1DPPC   C1B 1809  14.829  27.698   5.654 -0.0689 -0.1694  0.0916
    1DPPC   C2B 1810  14.743  27.629   5.232 -0.1129 -0.0752 -0.1729
    1DPPC   C3B 1811  14.481  27.439   4.917  0.2773 -0.1077  0.0827
    1DPPC   C4B 1812  14.408  27.247   4.471  0.1537  0.1572 -0.1135
    1DPPC   NC3 1813  12.563  30.094   6.704 -0.0872  0.1215  0.1195
    1DPPC   PO4 1814  12.187  30.267   6.759 -0.0497  0.0951  0.1630
    1DPPC   GL1 1815  12.203  30.093   6.356  0.1467 -0.1874  0.1714
    1DPPC   GL2 1816  11.896  30.007   6.208 -0.1591  0.0224 -0.0646
    1DPPC   C1A 1817  12.350  30.054   5.954 -0.2918 -0.0638 -0.1454
    1DPPC   C2A 1818  12.760  30.036   5.653  0.3785  0.1792  0.2217
    1DPPC   C3A 1819  13.151  30.099   5.453  0.0340 -0.0676 -0.3104
    1DPPC   C4A 1820  13.535  29.777   5.338  0.1626 -0.1781  0.0037
    1DPPC   C1B 1821  11.857  29.664   5.879  0.3170  0.1016 -0.1533
    1DPPC   C2B 1822  11.882  29.752   5.487  0.1402  0.2078  0.1189
    1DPPC   C3B 1823  11.882  29.944   5.154  0.1717 -0.1441  0.3465
    1DPPC   C4B 1824  11.695  29.813   4.750 -0.0446  0.0588 -0.0477
    1DPPC   NC3 1825  24.193  13.545   5.834  0.0824 -0.0226  0.0156
    1DPPC   PO4 1826  24.272  13.070   6.043  0.0152  0.0442 -0.0567
    1DPPC   GL1 1827  24.029  12.953   5.682 -0.3042 -0.3394 -0.2011
    1DPPC   GL2 1828  24.026  12.669   5.526 -0.2990  0.0787  0.0227
    1DPPC   C1A 1829  24.115  13.163   5.342 -0.0180  0.0583 -0.2399
    1DPPC   C2A 1830  24.324  13.158   4.972 -0.2015  0.0063 -0.0826
    1DPPC   C3A 1831  24.571  13.034   4.668  0.0559  0.3734 -0.0181
    1DPPC   C4A 1832  24.913  12.836   4.544  0.1867  0.0142 -0.3617
    1DPPC   C1B 1833  24.320  12.692   5.136 -0.0871  0.2022 -0.2080
    1DPPC   C2B 1834  24.513  12.578   4.845 -0.3322 -0.3557 -0.4272
    1DPPC   C3B 1835  24.518  12.548   4.421 -0.3028 -0.0776  0.0218
    1DPPC   C4B 1836  24.793  12.333   4.068 -0.0187  0.1099 -0.0292
    1DPPC   NC3 1837   4.683  14.778   6.650  0.1615 -0.1386  0.0758
    1DPPC   PO4 1838   4.470  14.311   6.489  0.2564  0.1031 -0.0754
    1DPPC   GL1 1839   4.603  14.083   6.191  0.1757 -0.0107  0.0375
    1DPPC   GL2 1840   4.443  13.869   6.055 -0.2943  0.0722 -0.0284
    1DPPC   C1A 1841   4.812  14.294   5.862  0.0435  0.0939  0.3717
    1DPPC   C2A 1842   4.774  14.326   5.393  0.0810  0.1232  0.0329
    1DPPC   C3A 1843   4.784  14.279   4.935  0.3055  0.0147 -0.1845
    1DPPC   C4A 1844   4.845  14.208   4.539  0.0522 -0.0228 -0.1920
    1DPPC   C1B 1845   4.403  14.082   5.687 -0.2959  0.0614 -0.0356
    1DPPC   C2B 1846   4.344  14.129   5.188  0.0166 -0.0382  0.0490
    1DPPC   C3B 1847   4.349  14.192   4.719  0.0372  0.2619 -0.1087
    1DPPC   C4B 1848   4.398  13.930   4.416  0.4740 -0.1955  0.3590
    1DPPC   NC3 1849   9.984   9.861   7.327  0.0210  0.0969  0.0080
    1DPPC   PO4 1850  10.120   9.722   6.935  0.1486 -0.1608 -0.2588
    1DPPC   GL1 1851  10.088   9.793   6.524 -0.0670 -0.1928  0.2914
    1DPPC   GL2 1852  10.051  10.075   6.326 -0.0745 -0.0926  0.1340
    1DPPC   C1A 1853  10.069   9.662   6.093  0.2711 -0.2053  0.2968
    1DPPC   C2A 1854   9.827   9.742   5.686 -0.0362 -0.3193 -0.0764
    1DPPC   C3A 1855   9.703   9.929   5.304  0.4018  0.2338 -0.2003
    1DPPC   C4A 1856   9.544  10.291   5.054 -0.0372 -0.0060 -0.1692
    1DPPC   C1B 1857  10.029  10.160   5.925  0.3117 -0.1814 -0.1608
    1DPPC   C2B 1858   9.791  10.458   5.605  0.2980 -0.0404 -0.0766
    1DPPC   C3B 1859   9.872  10.708   5.252 -0.0441 -0.3669  0.1613
    1DPPC   C4B 1860   9.488  10.867   4.968 -0.1487  0.3109  0.0930
    1DPPC   NC3 1861  24.271  12.543   5.964  0.1903  0.0536 -0.0947
    1DPPC   PO4 1862  23.896  12.343   5.957  0.4197 -0.0061 -0.1192
    1DPPC   GL1 1863  24.107  12.208   5.580 -0.0839  0.2539 -0.2159
    1DPPC   GL2 1864  24.361  12.320   5.448  0.1917  0.0548 -0.2097
    1DPPC   C1A 1865  24.081  11.932   5.245  0.0750  0.0253 -0.1207
    1DPPC   C2A 1866  24.201  11.853   4.786 -0.0946 -0.1592 -0.1408
    1DPPC   C3A 1867  24.290  11.759   4.338  0.0871  0.2758  0.0081
    1DPPC   C4A 1868  23.900  11.723   4.086 -0.0282 -0.2047 -0.0246
    1DPPC   C1B 1869  24.792  12.413   5.284  0.2784  0.2085  0.0540
    1DPPC   C2B 1870  25.096  12.092   4.952  0.0602 -0.2096  0.4055
    1DPPC   C3B 1871  25.477  12.104   4.739 -0.2906  0.2386  0.0456
    1DPPC   C4B 1872  25.792  12.220   4.473  0.5215 -0.0518 -0.0514
    1DPPC   NC3 1873  12.270  24.963   6.402 -0.0209 -0.1146  0.0905
    1DPPC   PO4 1874  12.124  25.423   6.311  0.0092  0.0499  0.1174
    1DPPC   GL1 1875  12.121  25.564   5.842  0.0849  0.1876 -0.0342
    1DPPC   GL2 1876  11.861  25.708   5.716  0.0916 -0.0937 -0.1284
    1DPPC   C1A 1877  12.305  25.469   5.383 -0.2125  0.0473  0.1238
    1DPPC   C2A 1878  12.769  25.547   5.314  0.1416  0.2007  0.0152
    1DPPC   C3A 1879  13.113  25.758   5.232 -0.0537 -0.1403 -0.4607
    1DPPC   C4A 1880  13.387  25.884   5.401  0.2187  0.1400  0.2781
    1DPPC   C1B 1881  11.814  25.861   5.329  0.2418  0.1372 -0.0611
    1DPPC   C2B 1882  11.847  26.022   4.894  0.0808 -0.1338  0.0523
    1DPPC   C3B 1883  11.778  26.124   4.440  0.0888 -0.2670  0.4549
    1DPPC   C4B 1884  11.814  26.509   4.161  0.4025 -0.0416  0.1738
    1DPPC   NC3 1885   7.414  26.551   6.385  0.0216 -0.3663 -0.0146
    1DPPC   PO4 1886   7.428  26.964   6.521 -0.1268 -0.0273  0.1369
    1DPPC   GL1 1887   7.568  27.034   6.077 -0.2085 -0.1040 -0.2173
    1DPPC   GL2 1888   7.733  27.308   6.164  0.1602  0.2359 -0.2243
    1DPPC   C1A 1889   7.398  27.213   5.688  0.1084 -0.2681 -0.1925
    1DPPC   C2A 1890   7.490  27.541   5.367 -0.2924 -0.0360  0.0526
    1DPPC   C3A 1891   7.739  27.738   5.134  0.0467  0.0645 -0.0813
    1DPPC   C4A 1892   7.882  28.255   5.132  0.0661  0.1494  0.1015
    1DPPC   C1B 1893   7.809  27.503   5.728  0.0742  0.1388  0.0974
    1DPPC   C2B 1894   8.034  27.374   5.335  0.3562  0.3154  0.2535
    1DPPC   C3B 1895   8.089  27.351   4.942  0.0626 -0.1039 -0.1134
    1DPPC   C4B 1896   7.944  26.977   4.755 -0.1523  0.2392  0.3446
    1DPPC   NC3 1897  28.201  20.236   6.657  0.2341  0.0441  0.3138
    1DPPC   PO4 1898  28.539  20.362   6.429 -0.0403  0.0162  0.0275
    1DPPC   GL1 1899  28.442  20.511   6.022 -0.0808  0.0969  0.0317
    1DPPC   GL2 1900  28.198  20.331   5.841  0.0954  0.2531  0.2605
    1DPPC   C1A 1901  28.589  20.628   5.627 -0.1973  0.0088  0.0179
    1DPPC   C2A 1902  28.644  20.670   5.231  0.2095  0.2635 -0.0051
    1DPPC   C3A 1903  28.604  20.695   4.856  0.2496 -0.0424  0.2657
    1DPPC   C4A 1904  28.605  20.739   4.464  0.0329 -0.1148  0.0003
    1DPPC   C1B 1905  28.164  20.477   5.413 -0.3071 -0.0186 -0.0088
    1DPPC   C2B 1906  28.098  20.590   5.057 -0.0406 -0.1999 -0.0299
    1DPPC   C3B 1907  28.085  20.680   4.582  0.2717  0.1481  0.0182
    1DPPC   C4B 1908  28.112  21.120   4.380 -0.4003 -0.1061  0.2340
    1DPPC   NC3 1909  26.961  14.627   6.530  0.2411 -0.4436  0.2535
    1DPPC   PO4 1910  27.093  14.278   6.725  0.0725  0.1521 -0.1639
    1DPPC   GL1 1911  27.083  14.201   6.296  0.1841  0.0695  0.0070
    1DPPC   GL2 1912  27.196  14.388   6.098 -0.0411 -0.0624  0.1778
    1DPPC   C1A 1913  26.984  13.909   5.999 -0.2670  0.2001 -0.2965
    1DPPC   C2A 1914  26.944  13.858   5.612  0.1298  0.0875  0.0402
    1DPPC   C3A 1915  26.911  13.860   5.246 -0.0843  0.1434  0.2513
    1DPPC   C4A 1916  26.876  13.737   4.784 -0.2762  0.0439  0.3012
    1DPPC   C1B 1917  27.204  14.299   5.659  0.0238 -0.0247  0.1886
    1DPPC   C2B 1918  26.942  14.377   5.318 -0.0058  0.0684  0.2145
    1DPPC   C3B 1919  26.546  14.242   5.038 -0.0716 -0.0342  0.0899
    1DPPC   C4B 1920  26.308  14.389   4.717  0.0027  0.1388  0.0239
    1DPPC   NC3 1921   7.292  17.291   6.364 -0.3183  0.1230 -0.3443
    1DPPC   PO4 1922   7.350  17.455   5.969  0.0196 -0.0271 -0.0958
    1DPPC   GL1 1923   7.373  17.168   5.609  0.2342  0.0385  0.3931
    1DPPC   GL2 1924   7.168  16.931   5.573  0.0119 -0.1054  0.1243
    1DPPC   C1A 1925   7.654  17.266   5.236  0.0124  0.0984 -0.2076
    1DPPC   C2A 1926   7.571  17.264   4.826  0.0440  0.0071 -0.2140
    1DPPC   C3A 1927   7.524  17.035   4.422  0.2551  0.1138  0.2884
    1DPPC   C4A 1928   7.217  16.976   4.130 -0.0105 -0.0474 -0.0020
    1DPPC   C1B 1929   7.220  16.978   5.135  0.0142  0.0942  0.1798
    1DPPC   C2B 1930   7.023  16.849   4.624 -0.0615  0.1112  0.2801
    1DPPC   C3B 1931   6.738  16.895   4.244  0.0669 -0.3088 -0.0981
    1DPPC   C4B 1932   6.463  16.934   3.914  0.0464  0.2579 -0.3066
    1DPPC   NC3 1933   3.220  19.368   6.102  0.3295 -0.0362  0.0446
    1DPPC   PO4 1934   2.851  19.125   6.179 -0.1006  0.3277  0.2088
    1DPPC   GL1 1935   2.861  19.117   5.772 -0.2349  0.1814 -0.0667
    1DPPC   GL2 1936   2.743  19.499   5.768  0.1788  0.1002  0.1248
    1DPPC   C1A 1937   2.735  19.253   5.327  0.0020 -0.0384 -0.2251
    1DPPC   C2A 1938   2.801  19.279   4.864 -0.2378 -0.2106  0.1682
    1DPPC   C3A 1939   2.841  19.452   4.552 -0.0509 -0.0396 -0.2423
    1DPPC   C4A 1940   2.642  19.676   4.193  0.0691  0.1566  0.0565
    1DPPC   C1B 1941   2.797  19.715   5.425 -0.0280 -0.0906  0.0295
    1DPPC   C2B 1942   2.914  19.755   4.994 -0.2356  0.1781 -0.0595
    1DPPC   C3B 1943   2.844  19.927   4.598  0.1233 -0.2677  0.2289
    1DPPC   C4B 1944   3.123  19.771   4.145  0.1421 -0.3906  0.0552
    1DPPC   NC3 1945  29.907  20.130   6.389 -0.0177 -0.3391  0.1580
    1DPPC   PO4 1946  30.170  19.705   6.217  0.1405 -0.0390 -0.1196
    1DPPC   GL1 1947  30.214  19.768   5.892 -0.0733  0.3317 -0.0398
    1DPPC   GL2 1948  29.967  19.518   5.795  0.0033  0.0850  0.1687
    1DPPC   C1A 1949  30.284  19.695   5.428  0.3467  0.6143 -0.2301
    1DPPC   C2A 1950  30.210  19.541   5.009 -0.0273 -0.1917 -0.1333
    1DPPC   C3A 1951  30.258  19.463   4.626  0.0385 -0.3561 -0.1073
    1DPPC   C4A 1952  30.109  19.455   4.218 -0.1661  0.0819 -0.1040
    1DPPC   C1B 1953  29.784  19.598   5.439  0.1568  0.1465 -0.0844
    1DPPC   C2B 1954  29.705  19.621   5.064  0.1960 -0.3064  0.0510
    1DPPC   C3B 1955  29.877  19.856   4.664 -0.0909  0.2197 -0.0124
    1DPPC   C4B 1956  30.074  19.943   4.297 -0.1488 -0.0235 -0.2387
    1DPPC   NC3 1957   3.607  15.824   6.557 -0.0878 -0.1373 -0.2340
    1DPPC   PO4 1958   3.855  15.707   6.223  0.1558 -0.0734 -0.0095
    1DPPC   GL1 1959   3.973  15.564   5.873  0.0054  0.0618  0.1946
    1DPPC   GL2 1960   4.295  15.700   5.780 -0.3888 -0.0320  0.0335
    1DPPC   C1A 1961   3.954  15.397   5.508 -0.1435 -0.1802 -0.0599
    1DPPC   C2A 1962   3.972  15.387   5.021 -0.2343  0.2149 -0.1545
    1DPPC   C3A 1963   4.100  15.350   4.649 -0.0515  0.0893 -0.0592
    1DPPC   C4A 1964   4.063  15.363   4.200 -0.0294  0.2110  0.2062
    1DPPC   C1B 1965   4.407  15.631   5.368 -0.2222 -0.3759 -0.2934
    1DPPC   C2B 1966   4.411  15.657   4.940  0.0350 -0.0679  0.1794
    1DPPC   C3B 1967   4.540  15.685   4.528  0.0467 -0.0211 -0.1491
    1DPPC   C4B 1968   4.861  15.565   4.211  0.1357  0.3357 -0.1224
    1DPPC   NC3 1969   8.150  25.820   6.443 -0.2515 -0.0134 -0.0663
    1DPPC   PO4 1970   7.716  25.954   6.313  0.2868  0.2183  0.1775
    1DPPC   GL1 1971   7.430  25.976   5.936  0.1415  0.3261 -0.0438
    1DPPC   GL2 1972   7.252  26.139   5.932  0.0080 -0.2408 -0.4517
    1DPPC   C1A 1973   7.499  25.671   5.589  0.0447 -0.3091 -0.0839
    1DPPC   C2A 1974   7.481  25.622   5.142  0.0539 -0.1599 -0.0994
    1DPPC   C3A 1975   7.379  25.546   4.705 -0.2696  0.4762  0.1482
    1DPPC   C4A 1976   7.476  25.198   4.434  0.0159  0.0816 -0.0886
    1DPPC   C1B 1977   7.319  26.217   5.482 -0.0272  0.0289  0.1199
    1DPPC   C2B 1978   7.456  26.084   5.124  0.1165  0.1656  0.2652
    1DPPC   C3B 1979   7.926  26.078   4.979 -0.0615  0.0438  0.0547
    1DPPC   C4B 1980   8.330  26.290   5.000  0.2024  0.0368  0.3207
    1DPPC   NC3 1981  13.236  13.690   7.525 -0.1040 -0.2515  0.0461
    1DPPC   PO4 1982  13.216  13.894   7.136  0.2392 -0.5479  0.0240
    1DPPC   GL1 1983  13.026  14.064   6.651 -0.0541  0.3286  0.0487
    1DPPC   GL2 1984  13.034  14.323   6.625  0.1152 -0.0716 -0.2512
    1DPPC   C1A 1985  12.695  13.910   6.434  0.0125  0.1378 -0.2105
    1DPPC   C2A 1986  12.540  13.828   6.037 -0.0186 -0.0324  0.2818
    1DPPC   C3A 1987  12.431  13.937   5.680  0.2422  0.2265  0.0499
    1DPPC   C4A 1988  12.231  14.062   5.397 -0.0892  0.2418  0.0429
    1DPPC   C1B 1989  13.314  14.289   6.236  0.0074  0.0901  0.0337
    1DPPC   C2B 1990  13.463  14.138   5.911  0.1322  0.1539  0.2673
    1DPPC   C3B 1991  13.397  14.294   5.429 -0.0416  0.2533 -0.0841
    1DPPC   C4B 1992  13.642  14.305   4.955 -0.0839  0.0415  0.3082
    1DPPC   NC3 1993   1.063  14.152   6.355  0.3706  0.0234  0.1334
    1DPPC   PO4 1994   0.843  14.495   6.680  0.0975 -0.0257 -0.1898
    1DPPC   GL1 1995   0.724  14.576   6.303 -0.2308 -0.2063  0.0378
    1DPPC   GL2 1996   0.559  14.282   6.279  0.1741  0.1783  0.3021
    1DPPC   C1A 1997   0.689  14.618   5.919  0.0089  0.2317  0.2171
    1DPPC   C2A 1998   0.664  14.481   5.429  0.0772 -0.0847 -0.0914
    1DPPC   C3A 1999   0.678  14.596   5.061  0.0558  0.6525 -0.2793
    1DPPC   C4A 2000   0.552  14.710   4.599  0.1959 -0.2057 -0.1095
    1DPPC   C1B 2001   0.424  14.220   5.865 -0.2180 -0.1262  0.3233
    1DPPC   C2B 2002   0.228  14.216   5.591 -0.2246 -0.2631  0.1173
    1DPPC   C3B 2003   0.265  14.238   5.144 -0.2095 -0.0023 -0.2975
    1DPPC   C4B 2004   0.450  14.071   4.671 -0.1037 -0.0202  0.0319
    1DPPC   NC3 2005   3.291  28.087   6.864 -0.0048 -0.1608  0.3208
    1DPPC   PO4 2006   3.471  28.466   7.008 -0.3389  0.0087  0.0196
    1DPPC   GL1 2007   3.503  28.455   6.555 -0.2857 -0.0475  0.2552
    1DPPC   GL2 2008   3.629  28.126   6.504  0.2339 -0.0126  0.4082
    1DPPC   C1A 2009   3.433  28.660   6.122 -0.1754 -0.0933 -0.0523
    1DPPC   C2A 2010   3.783  28.806   5.776  0.0745 -0.0726  0.0354
    1DPPC   C3A 2011   3.818  28.989   5.328 -0.0096 -0.0599  0.3356
    1DPPC   C4A 2012   3.596  28.927   4.993  0.0229 -0.0145 -0.3060
    1DPPC   C1B 2013   3.474  28.166   6.063 -0.1312  0.0233  0.0463
    1DPPC   C2B 2014   3.244  28.375   5.779  0.0941 -0.4634  0.1245
    1DPPC   C3B 2015   3.135  28.463   5.357 -0.0594  0.0961  0.0258
    1DPPC   C4B 2016   3.043  28.805   5.032 -0.1237 -0.0188 -0.0927
    1DPPC   NC3 2017  20.613   1.043   6.779  0.0521  0.0514  0.3963
    1DPPC   PO4 2018  20.292   1.298   6.497  0.3016  0.3873  0.2157
    1DPPC   GL1 2019  20.061   1.047   6.237  0.2886 -0.0058  0.2669
    1DPPC   GL2 2020  20.299   0.895   6.104  0.0809  0.0324  0.2252
    1DPPC   C1A 2021  19.790   0.784   5.998  0.0629 -0.2231 -0.0130
    1DPPC   C2A 2022  19.896   0.590   5.560 -0.2072  0.0353 -0.0894
    1DPPC   C3A 2023  20.211   0.615   5.326 -0.1250 -0.1370  0.2634
    1DPPC   C4A 2024  20.526   0.387   5.061 -0.2070  0.0306  0.1441
    1DPPC   C1B 2025  20.405   0.830   5.677 -0.2673  0.2617 -0.1184
    1DPPC   C2B 2026  20.801   0.877   5.385 -0.1340  0.2238  0.2827
    1DPPC   C3B 2027  20.988   1.257   5.204 -0.4433  0.3172  0.1615
    1DPPC   C4B 2028  21.245   1.563   5.126  0.1328  0.0641 -0.0103
    1DPPC   NC3 2029   1.172  13.576   7.228  0.0457 -0.2101 -0.0699
    1DPPC   PO4 2030   1.030  13.521   6.695 -0.5075 -0.0379  0.0857
    1DPPC   GL1 2031   1.197  13.386   6.322  0.1798  0.1449  0.1507
    1DPPC   GL2 2032   0.945  13.245   6.107  0.1703  0.2340 -0.0988
    1DPPC   C1A 2033   1.531  13.315   6.036  0.0874  0.1514 -0.0862
    1DPPC   C2A 2034   1.542  13.259   5.612 -0.1564  0.2097 -0.1251
    1DPPC   C3A 2035   1.471  13.184   5.169 -0.0415 -0.0866  0.1605
    1DPPC   C4A 2036   1.633  13.212   4.781 -0.0127 -0.0948  0.0163
    1DPPC   C1B 2037   1.069  13.238   5.698 -0.0654 -0.1921 -0.1339
    1DPPC   C2B 2038   0.854  12.946   5.281  0.1172  0.1580  0.1555
    1DPPC   C3B 2039   0.788  12.789   4.953  0.2643 -0.0464 -0.1601
    1DPPC   C4B 2040   0.862  12.816   4.483  0.1948  0.0007 -0.1312
    1DPPC   NC3 2041   1.525  11.959   7.210 -0.0016  0.1541 -0.1297
    1DPPC   PO4 2042   1.431  11.627   6.831 -0.1982  0.1473  0.0978
    1DPPC   GL1 2043   1.447  11.472   6.487  0.0178  0.1025 -0.1498
    1DPPC   GL2 2044   1.616  11.186   6.425 -0.3372  0.0564 -0.0986
    1DPPC   C1A 2045   1.383  11.544   6.060  0.1525 -0.1967 -0.0315
    1DPPC   C2A 2046   1.345  11.556   5.640  0.0239  0.1092 -0.0108
    1DPPC   C3A 2047   1.351  11.449   5.256 -0.1750  0.0631 -0.1116
    1DPPC   C4A 2048   1.567  11.110   5.125  0.0446 -0.0889  0.1132
    1DPPC   C1B 2049   1.609  11.024   6.017  0.0821 -0.1097  0.0494
    1DPPC   C2B 2050   1.496  11.023   5.651 -0.0451 -0.1671 -0.1158
    1DPPC   C3B 2051   1.527  10.621   5.365 -0.1634 -0.0654  0.0934
    1DPPC   C4B 2052   1.726  10.463   4.887 -0.0348 -0.1528 -0.0265
    1DPPC   NC3 2053   3.016   8.779   6.518 -0.3866  0.0513  0.0866
    1DPPC   PO4 2054   2.598   8.780   6.699  0.4242 -0.0370 -0.0846
    1DPPC   GL1 2055   2.557   8.913   6.352 -0.0928  0.0571 -0.0376
    1DPPC   GL2 2056   2.354   9.079   6.329 -0.2736 -0.3972  0.0071
    1DPPC   C1A 2057   2.535   8.749   5.979  0.1368 -0.3912  0.0221
    1DPPC   C2A 2058   2.779   9.003   5.620  0.3434 -0.0913  0.0699
    1DPPC   C3A 2059   2.823   9.114   5.142 -0.0168  0.3798 -0.1546
    1DPPC   C4A 2060   2.805   8.965   4.689  0.0924  0.1559  0.2135
    1DPPC   C1B 2061   2.688   9.353   6.065  0.1121  0.1683  0.0156
    1DPPC   C2B 2062   2.798   9.503   5.688  0.0617 -0.0550  0.1934
    1DPPC   C3B 2063   2.758   9.768   5.374 -0.3059 -0.0031 -0.1069
    1DPPC   C4B 2064   2.737   9.709   4.960  0.0196 -0.0224 -0.1746
    1DPPC   NC3 2065  26.254  23.017   6.972 -0.0853  0.2156  0.5168
    1DPPC   PO4 2066  25.969  22.820   6.741  0.1841  0.2188 -0.0158
    1DPPC   GL1 2067  25.668  22.866   6.293  0.1689 -0.1522  0.2141
    1DPPC   GL2 2068  25.839  23.167   6.160  0.1900 -0.0817  0.1691
    1DPPC   C1A 2069  25.417  22.837   5.962  0.0190 -0.0443  0.1609
    1DPPC   C2A 2070  25.370  22.618   5.598 -0.1108  0.0942 -0.0703
    1DPPC   C3A 2071  25.322  22.434   5.288 -0.0233  0.1188  0.1206
    1DPPC   C4A 2072  25.252  22.442   4.812  0.2225  0.3845  0.0607
    1DPPC   C1B 2073  25.899  23.465   5.783  0.1783 -0.0072  0.1053
    1DPPC   C2B 2074  25.914  23.263   5.334 -0.0948  0.2414 -0.1641
    1DPPC   C3B 2075  26.008  23.053   4.959  0.1867 -0.1593 -0.1808
    1DPPC   C4B 2076  26.006  23.206   4.602  0.0620 -0.1024  0.2084
    1DPPC   NC3 2077  29.253  13.675   6.691 -0.0378 -0.0860  0.0631
    1DPPC   PO4 2078  29.377  13.291   6.540  0.0381 -0.1040 -0.1164
    1DPPC   GL1 2079  29.289  13.506   6.148  0.0823  0.2478 -0.1754
    1DPPC   GL2 2080  28.964  13.513   6.164 -0.0786  0.0747 -0.0141
    1DPPC   C1A 2081  29.519  13.526   5.689 -0.0767 -0.0017  0.2435
    1DPPC   C2A 2082  29.546  13.497   5.273  0.1058  0.3450  0.2481
    1DPPC   C3A 2083  29.496  13.308   4.874  0.0384 -0.4210  0.0629
    1DPPC   C4A 2084  29.644  13.268   4.423  0.0656  0.2025 -0.1812
    1DPPC   C1B 2085  29.005  13.570   5.752  0.2594 -0.2651  0.1747
    1DPPC   C2B 2086  29.072  13.549   5.274 -0.3234  0.4398 -0.0254
    1DPPC   C3B 2087  28.938  13.331   4.935  0.1115 -0.2059 -0.1035
    1DPPC   C4B 2088  28.728  13.197   4.569  0.1926 -0.0061 -0.3124
    1DPPC   NC3 2089   6.405  22.552   6.490 -0.2265 -0.0254  0.4284
    1DPPC   PO4 2090   6.549  22.932   6.514 -0.2982 -0.3787 -0.0595
    1DPPC   GL1 2091   6.492  22.761   6.089 -0.1164  0.1967  0.1532
    1DPPC   GL2 2092   6.642  23.047   5.931 -0.0817 -0.1748  0.0890
    1DPPC   C1A 2093   6.540  22.584   5.665 -0.1108  0.1271  0.0983
    1DPPC   C2A 2094   6.447  22.542   5.311  0.1452 -0.2827 -0.1402
    1DPPC   C3A 2095   6.134  22.433   4.891 -0.2539 -0.0927  0.1732
    1DPPC   C4A 2096   6.027  22.577   4.463 -0.2919  0.3131 -0.2461
    1DPPC   C1B 2097   6.502  23.045   5.442  0.0496 -0.0193  0.2206
    1DPPC   C2B 2098   6.606  22.960   4.954  0.0224  0.2066 -0.1120
    1DPPC   C3B 2099   6.460  22.832   4.553  0.2041 -0.0146  0.2966
    1DPPC   C4B 2100   6.362  22.980   4.153  0.1306  0.0553  0.0443
    1DPPC   NC3 2101  30.157  19.210   6.189 -0.0738  0.0774 -0.1788
    1DPPC   PO4 2102   0.080  18.932   6.201  0.0775 -0.0017  0.2003
    1DPPC   GL1 2103  30.350  18.651   5.915  0.1843  0.0441  0.1909
    1DPPC   GL2 2104   0.171  18.340   6.015  0.0140  0.1095 -0.0459
    1DPPC   C1A 2105  30.293  18.629   5.464  0.1142  0.1162 -0.0266
    1DPPC   C2A 2106  30.222  18.604   5.040  0.0981  0.0819 -0.0467
    1DPPC   C3A 2107  30.116  18.493   4.612 -0.1003  0.1081 -0.2452
    1DPPC   C4A 2108  29.962  18.174   4.250 -0.0253  0.2330 -0.2985
    1DPPC   C1B 2109   0.294  18.274   5.586  0.0877  0.2237 -0.0448
    1DPPC   C2B 2110   0.238  18.285   5.198 -0.1925 -0.2247 -0.0033
    1DPPC   C3B 2111   0.105  18.234   4.764  0.1955  0.0805 -0.3397
    1DPPC   C4B 2112   0.102  18.059   4.382  0.0063  0.1824  0.0899
    1DPPC   NC3 2113   2.214  16.318   6.122 -0.0438 -0.2826 -0.0136
    1DPPC   PO4 2114   1.956  16.553   6.468 -0.3547 -0.0335 -0.1557
    1DPPC   GL1 2115   1.786  16.479   5.999  0.0849 -0.2732  0.0417
    1DPPC   GL2 2116   2.090  16.579   5.728 -0.0763 -0.1048  0.1725
    1DPPC   C1A 2117   1.594  16.399   5.576 -0.0245  0.0142  0.1445
    1DPPC   C2A 2118   1.494  16.412   5.171 -0.1307 -0.3180 -0.1359
    1DPPC   C3A 2119   1.538  16.524   4.676  0.1419  0.2862  0.1061
    1DPPC   C4A 2120   1.381  16.698   4.245 -0.0195  0.2093 -0.0801
    1DPPC   C1B 2121   2.049  16.535   5.353 -0.1129 -0.2881 -0.0328
    1DPPC   C2B 2122   2.043  16.639   5.061  0.0895  0.3232  0.1280
    1DPPC   C3B 2123   2.004  16.534   4.593 -0.1619  0.3834  0.1172
    1DPPC   C4B 2124   2.046  16.724   4.320  0.0576 -0.0988 -0.0504
    1DPPC   NC3 2125  27.813  18.437   6.066  0.3342 -0.0276 -0.0380
    1DPPC   PO4 2126  27.870  18.023   6.155  0.2058  0.0308  0.0177
    1DPPC   GL1 2127  27.919  18.173   5.687  0.0335 -0.2200 -0.1092
    1DPPC   GL2 2128  27.766  18.399   5.584  0.1175 -0.3695 -0.1096
    1DPPC   C1A 2129  28.055  17.864   5.425  0.0121  0.1650 -0.0753
    1DPPC   C2A 2130  28.145  18.045   5.010 -0.4161 -0.0133  0.1249
    1DPPC   C3A 2131  28.119  18.109   4.600 -0.1648 -0.1322  0.0324
    1DPPC   C4A 2132  27.902  18.161   4.277 -0.1575  0.0959  0.0313
    1DPPC   C1B 2133  27.725  18.372   5.129 -0.3338 -0.0159  0.0667
    1DPPC   C2B 2134  27.682  18.346   4.762 -0.0271  0.2788  0.0002
    1DPPC   C3B 2135  27.329  18.402   4.542  0.0748 -0.0066 -0.0040
    1DPPC   C4B 2136  27.143  18.665   4.263 -0.0642  0.1952 -0.1583
    1DPPC   NC3 2137   4.804  15.227   6.917  0.0614 -0.0121  0.1417
    1DPPC   PO4 2138   4.847  15.580   6.641  0.1018  0.1816  0.4291
    1DPPC   GL1 2139   4.871  15.584   6.234  0.2060 -0.0003  0.1476
    1DPPC   GL2 2140   4.675  15.890   6.094 -0.0432  0.0228 -0.1040
    1DPPC   C1A 2141   4.668  15.432   5.799  0.1826 -0.2808 -0.1038
    1DPPC   C2A 2142   4.446  15.171   5.517 -0.4631  0.1480  0.1630
    1DPPC   C3A 2143   4.429  15.187   5.053 -0.0645 -0.0004  0.1595
    1DPPC   C4A 2144   4.672  15.190   4.725 -0.1344 -0.5363 -0.0208
    1DPPC   C1B 2145   4.732  15.923   5.644  0.1799  0.2680 -0.0695
    1DPPC   C2B 2146   4.869  16.009   5.198 -0.0406 -0.4026  0.1276
    1DPPC   C3B 2147   4.995  16.025   4.789  0.0766 -0.2029 -0.2040
    1DPPC   C4B 2148   5.216  15.882   4.382 -0.0845  0.1663 -0.1392
    1DPPC   NC3 2149  29.829  15.740   6.487  0.1831  0.0160 -0.1282
    1DPPC   PO4 2150  29.482  15.484   6.625 -0.1351 -0.0833 -0.0390
    1DPPC   GL1 2151  29.359  15.614   6.206 -0.2436 -0.2051 -0.0387
    1DPPC   GL2 2152  29.090  15.452   6.107  0.2096  0.1520 -0.0821
    1DPPC   C1A 2153  29.486  15.795   5.872 -0.1667 -0.1683 -0.0031
    1DPPC   C2A 2154  29.491  15.761   5.385 -0.3261  0.1282 -0.1518
    1DPPC   C3A 2155  29.484  15.719   4.966 -0.3112 -0.0277  0.3006
    1DPPC   C4A 2156  29.455  15.775   4.552  0.3662  0.3008  0.0170
    1DPPC   C1B 2157  29.266  15.370   5.652  0.1862  0.2085 -0.2851
    1DPPC   C2B 2158  29.363  15.239   5.271  0.2008  0.1235 -0.3277
    1DPPC   C3B 2159  29.295  15.235   4.869 -0.4480 -0.1515  0.0272
    1DPPC   C4B 2160  29.439  15.107   4.490  0.1868 -0.1757  0.1074
    1DPPC   NC3 2161  27.502  24.817   6.205 -0.0016  0.0875  0.0271
    1DPPC   PO4 2162  27.840  24.953   6.225 -0.0621  0.0032 -0.2211
    1DPPC   GL1 2163  28.162  24.834   6.008 -0.0280  0.0362 -0.2254
    1DPPC   GL2 2164  28.252  25.238   5.958 -0.0695 -0.2305 -0.2661
    1DPPC   C1A 2165  28.412  24.940   5.637 -0.0001 -0.1561  0.1095
    1DPPC   C2A 2166  28.203  24.827   5.287 -0.0134  0.2125  0.1234
    1DPPC   C3A 2167  28.225  24.893   4.904 -0.3314  0.3053 -0.0362
    1DPPC   C4A 2168  28.604  25.210   4.693  0.2001  0.2196 -0.0395
    1DPPC   C1B 2169  28.025  25.283   5.551  0.0854  0.1898 -0.1928
    1DPPC   C2B 2170  27.849  25.206   5.138  0.0726  0.0487  0.4076
    1DPPC   C3B 2171  27.488  25.193   4.984  0.0216 -0.0534 -0.1744
    1DPPC   C4B 2172  27.173  25.424   4.922 -0.1678  0.0319 -0.0929
    1DPPC   NC3 2173  28.641   8.309   7.210 -0.2722 -0.0736  0.0738
    1DPPC   PO4 2174  28.856   8.348   6.787 -0.0121 -0.4637 -0.1265
    1DPPC   GL1 2175  28.955   8.195   6.439 -0.1376  0.0157  0.1737
    1DPPC   GL2 2176  28.594   8.140   6.289  0.0264  0.0979  0.4224
    1DPPC   C1A 2177  29.006   8.041   6.060  0.0201  0.0197 -0.0943
    1DPPC   C2A 2178  29.092   8.098   5.610  0.0659  0.1830 -0.0677
    1DPPC   C3A 2179  29.157   8.354   5.205  0.1005  0.1961 -0.0715
    1DPPC   C4A 2180  29.208   8.602   4.792  0.0633 -0.0344  0.5905
    1DPPC   C1B 2181  28.374   8.518   6.028  0.0814 -0.3596  0.3758
    1DPPC   C2B 2182  28.307   8.391   5.627  0.1757 -0.1725  0.3343
    1DPPC   C3B 2183  28.536   8.423   5.243 -0.1358  0.0143 -0.1321
    1DPPC   C4B 2184  28.765   8.584   4.999  0.1304  0.1018  0.0607
    1DPPC   NC3 2185  28.481  10.145   6.678  0.1720  0.0494  0.0111
    1DPPC   PO4 2186  28.172   9.808   6.631  0.1997  0.1226 -0.1471
    1DPPC   GL1 2187  28.338   9.842   6.206  0.2943  0.0601  0.1567
    1DPPC   GL2 2188  28.578   9.612   6.092 -0.2109  0.0898  0.0187
    1DPPC   C1A 2189  28.433   9.922   5.757  0.1849 -0.3097  0.2084
    1DPPC   C2A 2190  28.592   9.662   5.401 -0.3261  0.0114 -0.2156
    1DPPC   C3A 2191  28.616   9.712   4.975 -0.0987 -0.1054 -0.1752
    1DPPC   C4A 2192  28.905   9.707   4.567  0.2577 -0.1265  0.0998
    1DPPC   C1B 2193  28.865   9.498   5.780 -0.0906  0.2592 -0.1240
    1DPPC   C2B 2194  29.036   9.507   5.455 -0.0446  0.0668  0.2356
    1DPPC   C3B 2195  29.342   9.485   5.318 -0.2368  0.0642  0.1132
    1DPPC   C4B 2196  29.682   9.663   5.140 -0.2600 -0.0436  0.0653
    1DPPC   NC3 2197   4.557  23.465   6.745  0.0242 -0.0045  0.2526
    1DPPC   PO4 2198   4.746  23.348   6.316  0.0064 -0.0653 -0.2416
    1DPPC   GL1 2199   4.343  23.270   6.005  0.0482  0.2192 -0.1368
    1DPPC   GL2 2200   4.335  22.955   5.976  0.0248  0.0954  0.2403
    1DPPC   C1A 2201   4.150  23.477   5.743 -0.0055 -0.3555 -0.2338
    1DPPC   C2A 2202   4.073  23.613   5.284  0.2474 -0.5304  0.5769
    1DPPC   C3A 2203   3.993  23.629   4.817 -0.1385  0.2569 -0.2299
    1DPPC   C4A 2204   4.099  23.640   4.361  0.1641  0.1646 -0.0415
    1DPPC   C1B 2205   4.330  23.082   5.547 -0.0544 -0.0706 -0.0209
    1DPPC   C2B 2206   4.016  23.147   5.101 -0.2005 -0.1656 -0.3845
    1DPPC   C3B 2207   3.618  23.077   4.916  0.1644  0.0915 -0.0478
    1DPPC   C4B 2208   3.459  22.826   4.522  0.1232 -0.1314 -0.0342
    1DPPC   NC3 2209   3.953  17.984   6.626  0.2513 -0.1085 -0.1936
    1DPPC   PO4 2210   4.180  17.527   6.430  0.0280 -0.1887 -0.1127
    1DPPC   GL1 2211   4.443  17.457   5.992  0.2291  0.0123 -0.4093
    1DPPC   GL2 2212   4.704  17.684   5.895  0.2792 -0.0621  0.0420
    1DPPC   C1A 2213   4.454  17.347   5.612  0.2758  0.1750 -0.1508
    1DPPC   C2A 2214   4.460  17.327   5.141  0.1451 -0.2729  0.0366
    1DPPC   C3A 2215   4.449  17.220   4.707  0.1427  0.1953 -0.3218
    1DPPC   C4A 2216   4.332  17.226   4.266  0.0230  0.2046  0.1869
    1DPPC   C1B 2217   4.918  17.698   5.512 -0.1849  0.2452 -0.0335
    1DPPC   C2B 2218   4.901  17.583   5.157 -0.0919  0.0409  0.0596
    1DPPC   C3B 2219   4.863  17.468   4.715 -0.0247  0.2492 -0.0439
    1DPPC   C4B 2220   4.894  17.192   4.365  0.1467  0.1476 -0.3581
    1DPPC   NC3 2221   3.924  23.274   7.308  0.0762  0.1688  0.0169
    1DPPC   PO4 2222   3.953  23.185   6.791 -0.2096 -0.2659 -0.1268
    1DPPC   GL1 2223   3.838  23.140   6.401 -0.0400  0.0182 -0.0034
    1DPPC   GL2 2224   3.666  23.336   6.373 -0.0002  0.0927 -0.1365
    1DPPC   C1A 2225   3.854  23.181   5.955  0.3520  0.2185 -0.1336
    1DPPC   C2A 2226   3.793  23.235   5.563  0.0495  0.0011 -0.1625
    1DPPC   C3A 2227   3.626  23.452   5.260  0.0150  0.1005 -0.0939
    1DPPC   C4A 2228   3.441  23.667   4.914 -0.0028 -0.0434 -0.0724
    1DPPC   C1B 2229   3.760  23.610   6.062  0.1504 -0.3503  0.2712
    1DPPC   C2B 2230   3.757  23.780   5.671  0.1301 -0.0051 -0.0893
    1DPPC   C3B 2231   3.744  24.074   5.259  0.0359 -0.0190 -0.0100
    1DPPC   C4B 2232   4.123  24.325   5.119  0.3701 -0.2041  0.0226
    1DPPC   NC3 2233   4.631  18.726   5.946  0.0006  0.0022 -0.1908
    1DPPC   PO4 2234   4.640  18.392   6.295 -0.4965  0.1921 -0.1308
    1DPPC   GL1 2235   4.503  18.240   5.894  0.1320  0.0105 -0.0865
    1DPPC   GL2 2236   4.717  18.365   5.601 -0.1213 -0.0636 -0.0763
    1DPPC   C1A 2237   4.408  17.917   5.598  0.1664 -0.2946  0.0857
    1DPPC   C2A 2238   4.446  17.893   5.203  0.0097 -0.0711 -0.1156
    1DPPC   C3A 2239   4.389  17.810   4.798 -0.1040 -0.0136  0.3186
    1DPPC   C4A 2240   4.402  17.749   4.310 -0.0625  0.0165 -0.0917
    1DPPC   C1B 2241   4.843  18.115   5.313 -0.0011 -0.2457  0.1154
    1DPPC   C2B 2242   4.841  18.000   4.841  0.0501 -0.0539 -0.1182
    1DPPC   C3B 2243   4.751  18.072   4.389 -0.2793  0.2391  0.3047
    1DPPC   C4B 2244   4.943  18.097   3.953  0.4313  0.0542 -0.2508
    1DPPC   NC3 2245   7.144  12.717   7.177 -0.0678 -0.1541  0.4135
    1DPPC   PO4 2246   7.123  12.459   6.839  0.0721  0.0784  0.0677
    1DPPC   GL1 2247   6.858  12.509   6.499 -0.1315  0.0139 -0.1407
    1DPPC   GL2 2248   6.976  12.287   6.286 -0.0891 -0.2257 -0.5126
    1DPPC   C1A 2249   6.537  12.498   6.178 -0.1212 -0.0906  0.2880
    1DPPC   C2A 2250   6.428  12.484   5.757  0.0128 -0.0258 -0.3201
    1DPPC   C3A 2251   6.343  12.487   5.321  0.1173 -0.0706  0.0344
    1DPPC   C4A 2252   6.290  12.722   5.004  0.2430 -0.0867 -0.1143
    1DPPC   C1B 2253   6.977  12.558   5.926  0.2630  0.3228  0.0290
    1DPPC   C2B 2254   6.822  12.496   5.470 -0.1113  0.0194  0.0499
    1DPPC   C3B 2255   6.748  12.549   5.074  0.1375 -0.0174  0.1840
    1DPPC   C4B 2256   6.790  12.938   4.871 -0.2589 -0.0729  0.3673
    1DPPC   NC3 2257  12.186  12.330   6.717  0.0928  0.1853 -0.2639
    1DPPC   PO4 2258  11.996  12.565   7.031 -0.1147 -0.2972  0.1231
    1DPPC   GL1 2259  11.844  12.615   6.560 -0.0095 -0.1556  0.0398
    1DPPC   GL2 2260  11.571  12.843   6.551  0.2727 -0.0190  0.0633
    1DPPC   C1A 2261  11.756  12.808   6.115  0.2320 -0.4337  0.2831
    1DPPC   C2A 2262  11.854  12.991   5.681 -0.0517  0.0031 -0.3410
    1DPPC   C3A 2263  12.320  13.179   5.499 -0.0813  0.1830  0.2430
    1DPPC   C4A 2264  12.572  12.957   5.206 -0.1334  0.0803 -0.1349
    1DPPC   C1B 2265  11.297  12.971   6.286  0.2514 -0.0401  0.0367
    1DPPC   C2B 2266  11.336  12.935   5.806 -0.1407  0.0233 -0.0382
    1DPPC   C3B 2267  11.410  12.742   5.372  0.0953  0.0075  0.3678
    1DPPC   C4B 2268  11.626  12.570   5.084 -0.2171  0.0400 -0.0105
    1DPPC   NC3 2269  27.736  23.341   6.361  0.1494 -0.0615  0.1842
    1DPPC   PO4 2270  28.212  23.346   6.500  0.0922  0.0057 -0.1456
    1DPPC   GL1 2271  28.343  23.109   6.214  0.0285  0.0986 -0.1042
    1DPPC   GL2 2272  28.085  23.171   6.016 -0.1218  0.1210  0.3611
    1DPPC   C1A 2273  28.452  22.679   6.012  0.1243  0.1245 -0.4441
    1DPPC   C2A 2274  28.576  22.585   5.637 -0.2160 -0.1244 -0.1600
    1DPPC   C3A 2275  28.677  22.596   5.240  0.2324 -0.3594  0.0598
    1DPPC   C4A 2276  28.895  22.616   4.883 -0.1904 -0.1509  0.2250
    1DPPC   C1B 2277  28.233  23.019   5.684 -0.1278  0.1525  0.4789
    1DPPC   C2B 2278  28.279  22.902   5.289  0.1863 -0.3015 -0.2307
    1DPPC   C3B 2279  28.448  22.956   4.905  0.0035  0.1093  0.1057
    1DPPC   C4B 2280  28.460  23.128   4.385  0.1818  0.3007  0.2529
    1DPPC   NC3 2281  29.712  17.093   6.398  0.0334  0.0705 -0.1078
    1DPPC   PO4 2282  29.412  17.388   6.379  0.0181 -0.0494 -0.4110
    1DPPC   GL1 2283  29.511  17.167   5.903 -0.0479  0.3423 -0.1725
    1DPPC   GL2 2284  29.445  16.837   5.750  0.0332 -0.3175 -0.0460
    1DPPC   C1A 2285  29.570  17.304   5.546  0.0396  0.1054 -0.3387
    1DPPC   C2A 2286  29.359  17.297   5.131 -0.1886  0.1046 -0.0610
    1DPPC   C3A 2287  29.300  17.190   4.702  0.0332  0.0488  0.0608
    1DPPC   C4A 2288  29.190  17.460   4.426  0.3408  0.0293  0.2593
    1DPPC   C1B 2289  29.606  16.872   5.335  0.2752  0.1021  0.0909
    1DPPC   C2B 2290  29.667  16.783   4.826  0.0592  0.0839 -0.0516
    1DPPC   C3B 2291  29.716  16.858   4.417  0.1771  0.1466 -0.2730
    1DPPC   C4B 2292  29.498  17.155   4.175 -0.2190 -0.2212  0.1175
    1DPPC   NC3 2293   4.590   5.496   6.886  0.1130 -0.2542  0.0375
    1DPPC   PO4 2294   4.587   5.999   6.822  0.0241 -0.1205 -0.0325
    1DPPC   GL1 2295   4.619   5.981   6.307 -0.0181 -0.4544 -0.1720
    1DPPC   GL2 2296   4.735   6.231   6.234 -0.1793  0.4371 -0.1500
    1DPPC   C1A 2297   4.603   5.835   5.862  0.0356  0.1078  0.1339
    1DPPC   C2A 2298   4.239   5.897   5.557  0.3597 -0.1047 -0.1632
    1DPPC   C3A 2299   3.987   5.906   5.321  0.1656  0.0920  0.2555
    1DPPC   C4A 2300   3.967   6.127   4.982  0.1507  0.3679  0.0657
    1DPPC   C1B 2301   4.785   6.315   5.848  0.0531 -0.2285 -0.1219
    1DPPC   C2B 2302   4.820   6.107   5.463  0.0207 -0.2019  0.1274
    1DPPC   C3B 2303   4.948   5.878   5.067  0.4460 -0.3113 -0.0434
    1DPPC   C4B 2304   5.183   5.584   4.867  0.1334 -0.0397 -0.5003
    1DPPC   NC3 2305   6.650  17.935   5.822  0.3118 -0.0524 -0.0138
    1DPPC   PO4 2306   6.744  18.229   5.960  0.0280 -0.5064 -0.0815
    1DPPC   GL1 2307   6.879  18.335   5.477 -0.2048  0.1101 -0.0425
    1DPPC   GL2 2308   6.765  18.064   5.337 -0.2285 -0.2428  0.1104
    1DPPC   C1A 2309   7.134  18.476   5.169 -0.3165 -0.3084  0.0026
    1DPPC   C2A 2310   7.266  18.617   4.788 -0.0786 -0.0139  0.1134
    1DPPC   C3A 2311   7.517  18.828   4.542  0.0401 -0.1217 -0.0171
    1DPPC   C4A 2312   7.890  18.835   4.328 -0.1194  0.1629 -0.1841
    1DPPC   C1B 2313   6.764  18.198   4.879  0.1621 -0.1815  0.0208
    1DPPC   C2B 2314   6.899  18.346   4.460 -0.0594 -0.0488  0.0370
    1DPPC   C3B 2315   7.030  18.552   4.150  0.0830 -0.2001  0.2687
    1DPPC   C4B 2316   7.024  18.841   3.795  0.1644 -0.3962 -0.1961
    1DPPC   NC3 2317  27.009  20.082   6.184 -0.0127  0.2071  0.0726
    1DPPC   PO4 2318  27.353  20.360   6.172  0.2878  0.0274  0.1086
    1DPPC   GL1 2319  27.204  20.366   5.767  0.0002 -0.3104  0.1595
    1DPPC   GL2 2320  27.375  20.162   5.497 -0.1357 -0.0587  0.1623
    1DPPC   C1A 2321  26.997  20.471   5.432  0.3964 -0.0898  0.0647
    1DPPC   C2A 2322  26.974  20.538   5.026 -0.0522 -0.2697 -0.0182
    1DPPC   C3A 2323  27.150  20.724   4.691 -0.1050  0.1311 -0.0253
    1DPPC   C4A 2324  27.146  20.605   4.204  0.0989  0.0525 -0.0976
    1DPPC   C1B 2325  27.345  20.271   5.136 -0.4242 -0.0866  0.1410
    1DPPC   C2B 2326  27.366  20.267   4.730 -0.0651 -0.1372  0.2594
    1DPPC   C3B 2327  27.556  20.507   4.462 -0.3772 -0.0038  0.0144
    1DPPC   C4B 2328  27.551  20.596   3.940  0.1444 -0.2397 -0.3265
    1DPPC   NC3 2329  26.092  13.934   6.548  0.2459 -0.0512 -0.3738
    1DPPC   PO4 2330  25.919  14.293   6.374  0.2937  0.2282 -0.0018
    1DPPC   GL1 2331  26.054  14.372   5.945 -0.3093 -0.0338  0.0064
    1DPPC   GL2 2332  25.808  14.437   5.835 -0.0707 -0.3308 -0.2230
    1DPPC   C1A 2333  26.265  14.561   5.728 -0.3584  0.0476 -0.0947
    1DPPC   C2A 2334  26.346  14.637   5.297  0.0808  0.2070 -0.0307
    1DPPC   C3A 2335  26.316  14.858   4.881  0.1912  0.1650 -0.1055
    1DPPC   C4A 2336  26.195  15.137   4.596 -0.0735  0.1612 -0.0530
    1DPPC   C1B 2337  25.679  14.586   5.468  0.0352  0.2748  0.0928
    1DPPC   C2B 2338  25.905  14.802   5.083  0.0439  0.1361 -0.3151
    1DPPC   C3B 2339  25.699  14.949   4.781  0.0995  0.2158 -0.0157
    1DPPC   C4B 2340  25.668  15.224   4.395 -0.1656 -0.0088  0.0582
    1DPPC   NC3 2341   5.069  18.545   5.923  0.0211  0.0182  0.0472
    1DPPC   PO4 2342   5.013  18.858   5.660  0.3448  0.0720 -0.0984
    1DPPC   GL1 2343   4.831  18.856   5.414  0.1713  0.1247 -0.0830
    1DPPC   GL2 2344   4.754  18.583   5.169  0.0159 -0.1783 -0.1233
    1DPPC   C1A 2345   4.907  18.990   4.922  0.5005  0.1881 -0.0452
    1DPPC   C2A 2346   5.166  18.822   4.554  0.1097 -0.0871  0.0311
    1DPPC   C3A 2347   5.098  19.058   4.189 -0.0833 -0.1236 -0.1233
    1DPPC   C4A 2348   4.900  19.195   3.881  0.1406 -0.1736  0.2002
    1DPPC   C1B 2349   4.753  18.536   4.664  0.0307  0.0676  0.1348
    1DPPC   C2B 2350   4.850  18.568   4.164 -0.0851 -0.2703 -0.1286
    1DPPC   C3B 2351   4.859  18.745   3.774  0.0335 -0.1994  0.1686
    1DPPC   C4B 2352   5.162  18.896   3.533 -0.1814  0.0294  0.2934
    1DPPC   NC3 2353  24.206  20.938   6.164  0.1710 -0.0450 -0.0835
    1DPPC   PO4 2354  24.596  21.038   6.129 -0.2365  0.1049 -0.1822
    1DPPC   GL1 2355  24.672  21.097   5.736  0.2335  0.2234  0.2429
    1DPPC   GL2 2356  24.353  20.883   5.711 -0.0918  0.1716  0.0391
    1DPPC   C1A 2357  24.873  21.398   5.429 -0.1289  0.0722 -0.3629
    1DPPC   C2A 2358  24.867  21.523   5.028  0.1786 -0.4047 -0.2443
    1DPPC   C3A 2359  24.804  21.487   4.598  0.2282  0.1017 -0.1950
    1DPPC   C4A 2360  25.146  21.373   4.267  0.2560  0.0048 -0.1331
    1DPPC   C1B 2361  24.104  20.917   5.370  0.0293 -0.0023  0.1587
    1DPPC   C2B 2362  24.212  20.720   4.940 -0.2455 -0.3615 -0.0375
    1DPPC   C3B 2363  24.178  20.729   4.492 -0.1748  0.0341 -0.3280
    1DPPC   C4B 2364  24.366  20.681   4.138  0.1400  0.1501 -0.0099
    1DPPC   NC3 2365   6.771  20.372   6.028 -0.0533  0.0377 -0.2527
    1DPPC   PO4 2366   6.875  19.929   5.919  0.0138 -0.1698 -0.0837
    1DPPC   GL1 2367   6.733  19.829   5.499 -0.0967  0.0844  0.0460
    1DPPC   GL2 2368   6.670  19.479   5.387  0.1266 -0.1851  0.0201
    1DPPC   C1A 2369   6.663  19.815   5.016 -0.0974 -0.1428 -0.0597
    1DPPC   C2A 2370   6.669  19.800   4.635 -0.0147  0.0591 -0.1278
    1DPPC   C3A 2371   6.593  19.712   4.192  0.0218  0.0229 -0.1670
    1DPPC   C4A 2372   6.667  19.692   3.732 -0.0822  0.1326 -0.1365
    1DPPC   C1B 2373   6.646  19.361   4.917 -0.0115  0.2015 -0.2564
    1DPPC   C2B 2374   6.670  19.294   4.466 -0.4214  0.1938  0.0815
    1DPPC   C3B 2375   6.702  19.223   4.053 -0.0118  0.1365 -0.2895
    1DPPC   C4B 2376   6.501  19.023   3.757  0.0973  0.2475 -0.0442
    1DPPC   NC3 2377  28.309   9.348   6.462  0.0696  0.1521 -0.3154
    1DPPC   PO4 2378  27.847   9.228   6.260  0.0156  0.2814  0.1129
    1DPPC   GL1 2379  27.574   9.015   6.005  0.0382 -0.0217  0.1410
    1DPPC   GL2 2380  27.221   8.958   6.131 -0.0889  0.1935  0.1706
    1DPPC   C1A 2381  27.637   9.121   5.557  0.2209 -0.3002 -0.2216
    1DPPC   C2A 2382  27.555   8.943   5.172 -0.2139 -0.0696  0.0827
    1DPPC   C3A 2383  27.859   8.925   4.863 -0.0706  0.0209 -0.1020
    1DPPC   C4A 2384  27.995   9.047   4.572  0.1545  0.0541 -0.3337
    1DPPC   C1B 2385  27.294   8.597   5.833  0.1920 -0.3076  0.1875
    1DPPC   C2B 2386  27.548   8.548   5.534  0.3256 -0.3234 -0.2948
    1DPPC   C3B 2387  27.704   8.465   5.078 -0.6114 -0.2158  0.0645
    1DPPC   C4B 2388  28.001   8.488   4.689  0.3353 -0.0833  0.0828
    1DPPC   NC3 2389  26.610  18.764   6.576  0.2188  0.1394  0.0037
    1DPPC   PO4 2390  26.897  18.332   6.535 -0.4397 -0.3963 -0.0744
    1DPPC   GL1 2391  27.102  18.167   6.056  0.3855  0.1239 -0.2281
    1DPPC   GL2 2392  27.395  18.203   5.890 -0.1298 -0.2164  0.0765
    1DPPC   C1A 2393  27.056  17.883   5.641  0.2233  0.2346 -0.0989
    1DPPC   C2A 2394  26.941  17.862   5.218 -0.1646 -0.0652 -0.2781
    1DPPC   C3A 2395  26.980  17.985   4.791  0.0990  0.1111  0.3903
    1DPPC   C4A 2396  26.917  17.958   4.363  0.2326  0.1867  0.0386
    1DPPC   C1B 2397  27.294  18.372   5.395 -0.1431 -0.3512  0.0647
    1DPPC   C2B 2398  27.249  18.581   5.045 -0.1210 -0.0246 -0.0649
    1DPPC   C3B 2399  27.389  18.833   4.788 -0.1726 -0.4086 -0.0452
    1DPPC   C4B 2400  27.253  19.202   4.574 -0.1580  0.0142  0.3821
    1DPPC   NC3 2401  27.727  15.000   6.721  0.0366 -0.3597  0.0399
    1DPPC   PO4 2402  27.774  14.787   6.299 -0.2104 -0.2398 -0.1280
    1DPPC   GL1 2403  28.040  14.674   5.919  0.1315 -0.1481  0.0801
    1DPPC   GL2 2404  28.261  14.327   5.878 -0.3801 -0.1817  0.1040
    1DPPC   C1A 2405  27.999  14.809   5.536 -0.1921  0.2288  0.0065
    1DPPC   C2A 2406  27.934  14.679   5.204 -0.0198 -0.2949 -0.0759
    1DPPC   C3A 2407  27.837  14.565   4.766 -0.0904  0.1498  0.0172
    1DPPC   C4A 2408  27.840  14.714   4.355 -0.0522  0.2274  0.2411
    1DPPC   C1B 2409  28.153  14.332   5.435 -0.1262  0.0401  0.0440
    1DPPC   C2B 2410  28.239  14.245   4.939 -0.0869 -0.2866  0.0173
    1DPPC   C3B 2411  28.569  14.199   4.525 -0.0299  0.1251 -0.1694
    1DPPC   C4B 2412  28.741  13.995   4.180 -0.1015 -0.2450 -0.0205
    1DPPC   NC3 2413   6.014  18.001   6.320 -0.4464  0.4139  0.2174
    1DPPC   PO4 2414   6.148  17.711   5.861  0.0782  0.1865 -0.1935
    1DPPC   GL1 2415   5.968  17.967   5.445 -0.1127 -0.3722  0.1965
    1DPPC   GL2 2416   6.276  18.149   5.384 -0.0111 -0.0388 -0.0711
    1DPPC   C1A 2417   5.786  18.132   5.221  0.0878  0.1826 -0.0685
    1DPPC   C2A 2418   5.714  18.133   4.770 -0.1052 -0.1524 -0.0226
    1DPPC   C3A 2419   5.845  18.027   4.366  0.0028  0.0395 -0.3385
    1DPPC   C4A 2420   6.277  17.715   4.151 -0.1370 -0.0506 -0.1997
    1DPPC   C1B 2421   6.209  18.021   5.019  0.2761 -0.2606  0.1546
    1DPPC   C2B 2422   6.435  17.852   4.636  0.1875  0.0105  0.1591
    1DPPC   C3B 2423   6.764  17.830   4.262  0.1600 -0.3602  0.1632
    1DPPC   C4B 2424   6.677  17.985   3.937  0.1687  0.0729 -0.0197
    1DPPC   NC3 2425   2.436  18.264   6.265 -0.0456 -0.2786 -0.0001
    1DPPC   PO4 2426   1.980  18.120   6.326 -0.0610  0.1654  0.1319
    1DPPC   GL1 2427   2.045  18.362   5.990  0.0113  0.0466  0.0035
    1DPPC   GL2 2428   1.811  18.607   5.863 -0.3479 -0.2786 -0.2448
    1DPPC   C1A 2429   2.149  18.511   5.501  0.0419  0.1085 -0.3243
    1DPPC   C2A 2430   2.190  18.483   5.124  0.4321 -0.1150 -0.0120
    1DPPC   C3A 2431   2.156  18.416   4.735 -0.0664  0.0932  0.1269
    1DPPC   C4A 2432   2.198  18.481   4.343  0.0332  0.0949 -0.0457
    1DPPC   C1B 2433   1.759  18.835   5.564 -0.0094 -0.1070  0.0858
    1DPPC   C2B 2434   1.799  18.788   5.094 -0.1754 -0.3644  0.1954
    1DPPC   C3B 2435   1.833  18.911   4.690 -0.0006  0.2315  0.2947
    1DPPC   C4B 2436   2.091  19.069   4.339 -0.0015 -0.0876 -0.1078
    1DPPC   NC3 2437   8.219   2.567   6.966  0.1738  0.0420 -0.0427
    1DPPC   PO4 2438   8.182   2.307   6.656  0.2369  0.0859  0.0319
    1DPPC   GL1 2439   7.815   2.117   6.371 -0.0175 -0.2339  0.0028
    1DPPC   GL2 2440   7.832   1.816   6.202 -0.1464 -0.3425  0.0791
    1DPPC   C1A 2441   7.348   2.281   6.161  0.1253 -0.1483  0.0954
    1DPPC   C2A 2442   7.038   2.319   6.472  0.3040 -0.0426  0.2242
    1DPPC   C3A 2443   6.763   2.432   6.623 -0.1622  0.0844  0.3473
    1DPPC   C4A 2444   6.490   2.208   6.503  0.0382  0.0587  0.0426
    1DPPC   C1B 2445   7.508   1.760   5.980 -0.2109 -0.0735  0.0004
    1DPPC   C2B 2446   7.361   1.387   5.791  0.3212 -0.3309 -0.0519
    1DPPC   C3B 2447   7.315   1.246   5.295 -0.0788  0.4470 -0.3196
    1DPPC   C4B 2448   7.056   0.877   5.227  0.3896 -0.1271 -0.0496
    1DPPC   NC3 2449   2.038  14.159   6.482  0.0941 -0.1164  0.1728
    1DPPC   PO4 2450   2.325  14.522   6.460  0.0248 -0.2249 -0.1740
    1DPPC   GL1 2451   2.412  14.266   6.076  0.1017 -0.2952 -0.2040
    1DPPC   GL2 2452   2.145  14.191   5.932 -0.0216 -0.1453 -0.1130
    1DPPC   C1A 2453   2.473  14.304   5.596  0.1796  0.2528 -0.1027
    1DPPC   C2A 2454   2.484  14.226   5.195 -0.0262  0.1866 -0.2118
    1DPPC   C3A 2455   2.439  14.322   4.762  0.0559 -0.0357 -0.2850
    1DPPC   C4A 2456   2.385  14.244   4.294  0.1478  0.2940  0.0928
    1DPPC   C1B 2457   2.036  14.186   5.498  0.0915 -0.1995 -0.0921
    1DPPC   C2B 2458   1.989  14.135   5.079  0.0158 -0.1814 -0.1827
    1DPPC   C3B 2459   1.969  14.203   4.627  0.1531  0.0190 -0.0579
    1DPPC   C4B 2460   1.877  14.391   4.236 -0.1675 -0.1033  0.0880
    1DPPC   NC3 2461  28.361   8.388   6.716 -0.0329 -0.1589  0.0197
    1DPPC   PO4 2462  28.006   7.999   6.714  0.2045  0.1528 -0.2286
    1DPPC   GL1 2463  27.933   8.180   6.373  0.0486  0.5498  0.0732
    1DPPC   GL2 2464  28.017   8.529   6.366  0.0225 -0.2026  0.1693
    1DPPC   C1A 2465  27.989   8.168   5.909 -0.0722  0.0459 -0.0876
    1DPPC   C2A 2466  27.878   8.177   5.463 -0.2356 -0.3001  0.1212
    1DPPC   C3A 2467  28.105   8.180   5.046 -0.2565 -0.0432 -0.0596
    1DPPC   C4A 2468  28.473   8.279   4.779  0.1239 -0.1801 -0.0758
    1DPPC   C1B 2469  27.847   8.649   5.948 -0.2556 -0.0127 -0.2668
    1DPPC   C2B 2470  27.993   8.763   5.469 -0.1896 -0.0084 -0.1343
    1DPPC   C3B 2471  28.194   8.678   5.149  0.1426 -0.2275 -0.1263
    1DPPC   C4B 2472  28.364   8.847   4.897  0.2803  0.2661  0.0236
    1DPPC   NC3 2473   5.610   6.536   6.574 -0.1389  0.3349  0.0303
    1DPPC   PO4 2474   6.077   6.701   6.533  0.1944 -0.0893  0.0545
    1DPPC   GL1 2475   5.873   6.597   6.170 -0.0533 -0.0889 -0.0169
    1DPPC   GL2 2476   5.771   6.206   6.235  0.0872  0.1650  0.0469
    1DPPC   C1A 2477   5.755   6.327   5.717 -0.0392 -0.0192 -0.2261
    1DPPC   C2A 2478   5.741   5.937   5.538 -0.0371 -0.1604 -0.0400
    1DPPC   C3A 2479   6.064   5.546   5.306 -0.0326  0.0047  0.2141
    1DPPC   C4A 2480   6.096   5.545   4.850 -0.0897 -0.2200 -0.5608
    1DPPC   C1B 2481   5.910   5.914   6.002 -0.2154 -0.1974  0.0394
    1DPPC   C2B 2482   6.187   5.587   5.836 -0.3902 -0.1948 -0.0006
    1DPPC   C3B 2483   6.514   5.465   5.538 -0.1801 -0.1322 -0.0735
    1DPPC   C4B 2484   6.596   5.722   5.170 -0.1263  0.1492  0.2509
    1DPPC   NC3 2485   8.450  20.261   6.008  0.1475  0.1873 -0.0899
    1DPPC   PO4 2486   8.907  20.227   5.864 -0.1892  0.1541  0.0723
    1DPPC   GL1 2487   8.877  20.219   5.451  0.1108  0.2695 -0.3106
    1DPPC   GL2 2488   9.040  20.030   5.390  0.0532  0.3935  0.0734
    1DPPC   C1A 2489   8.821  20.565   5.182  0.1496  0.1988  0.1800
    1DPPC   C2A 2490   9.052  20.697   4.791 -0.1627 -0.2132  0.1891
    1DPPC   C3A 2491   8.991  20.638   4.400  0.3869 -0.2097 -0.2347
    1DPPC   C4A 2492   8.658  20.345   4.229  0.2594 -0.1158  0.0735
    1DPPC   C1B 2493   9.164  20.219   4.960 -0.0510  0.0710  0.0419
    1DPPC   C2B 2494   9.114  20.152   4.441  0.2904  0.2257  0.0320
    1DPPC   C3B 2495   9.277  19.907   4.185  0.1828  0.1998  0.2345
    1DPPC   C4B 2496   9.602  19.909   3.773  0.4096 -0.1982  0.1342
    1DPPC   NC3 2497   6.420  19.881   6.227  0.2308  0.1242 -0.3043
    1DPPC   PO4 2498   5.948  20.062   5.934 -0.0896  0.1488 -0.1480
    1DPPC   GL1 2499   5.958  20.163   5.429  0.2827 -0.1796 -0.1071
    1DPPC   GL2 2500   6.060  20.517   5.310 -0.0065 -0.0615 -0.1889
    1DPPC   C1A 2501   5.844  20.069   5.103 -0.0059  0.2307  0.2311
    1DPPC   C2A 2502   5.788  20.018   4.647 -0.0040  0.2016 -0.3219
    1DPPC   C3A 2503   5.923  19.962   4.254  0.0313  0.0177 -0.1976
    1DPPC   C4A 2504   5.864  19.774   3.914 -0.1818  0.0865 -0.2299
    1DPPC   C1B 2505   6.070  20.535   4.885 -0.1277  0.2255  0.1413
    1DPPC   C2B 2506   6.178  20.540   4.428 -0.0242  0.1261  0.1446
    1DPPC   C3B 2507   6.236  20.684   4.085  0.0631 -0.1978  0.0227
    1DPPC   C4B 2508   6.103  20.807   3.648  0.0249  0.2824 -0.0070
    1DPPC   NC3 2509   2.685  19.865   6.786 -0.1884  0.1653  0.0788
    1DPPC   PO4 2510   2.818  20.031   6.401  0.1646  0.1377  0.1987
    1DPPC   GL1 2511   2.663  20.210   5.986  0.0015  0.1771 -0.0351
    1DPPC   GL2 2512   2.557  20.000   5.779  0.2228 -0.0624  0.0242
    1DPPC   C1A 2513   2.930  20.337   5.641 -0.0079  0.1123 -0.0831
    1DPPC   C2A 2514   2.966  20.171   5.270 -0.1082 -0.0695 -0.1050
    1DPPC   C3A 2515   2.995  20.328   4.792 -0.4659  0.2186 -0.0374
    1DPPC   C4A 2516   2.885  20.328   4.325 -0.0167 -0.2301  0.0574
    1DPPC   C1B 2517   2.351  20.105   5.380 -0.2872  0.1811  0.2774
    1DPPC   C2B 2518   2.417  20.151   4.934  0.1084  0.1603 -0.1478
    1DPPC   C3B 2519   2.406  20.118   4.425 -0.0973  0.1278 -0.0595
    1DPPC   C4B 2520   2.141  19.829   4.191 -0.1505 -0.1757  0.0346
    1DPPC   NC3 2521   2.709  13.793   6.245  0.1612 -0.2392 -0.4697
    1DPPC   PO4 2522   2.789  13.426   6.441 -0.1184 -0.0263 -0.0343
    1DPPC   GL1 2523   2.522  13.355   6.087  0.0262 -0.4265  0.1497
    1DPPC   GL2 2524   2.764  13.198   5.833 -0.0535  0.0253  0.0787
    1DPPC   C1A 2525   2.121  13.304   5.935 -0.1515  0.1233 -0.2500
    1DPPC   C2A 2526   2.048  13.270   5.553 -0.1018  0.1138  0.2799
    1DPPC   C3A 2527   1.969  13.321   5.148  0.0417  0.3178  0.0881
    1DPPC   C4A 2528   2.123  13.211   4.707  0.2418 -0.0451  0.0638
    1DPPC   C1B 2529   2.568  13.305   5.527  0.3525 -0.2708 -0.1252
    1DPPC   C2B 2530   2.522  13.317   5.120 -0.1940 -0.1689  0.0277
    1DPPC   C3B 2531   2.595  13.370   4.759 -0.1949 -0.0006 -0.4456
    1DPPC   C4B 2532   2.792  13.323   4.467 -0.1493 -0.0864 -0.3742
    1DPPC   NC3 2533  27.066  17.068   6.137  0.0892  0.3516  0.0466
    1DPPC   PO4 2534  26.701  16.958   6.371  0.1735  0.0127  0.1359
    1DPPC   GL1 2535  26.639  16.924   5.941 -0.0151  0.2926 -0.0698
    1DPPC   GL2 2536  26.765  17.275   5.843 -0.0498 -0.1021  0.1042
    1DPPC   C1A 2537  26.646  16.735   5.532 -0.0759 -0.1206  0.2897
    1DPPC   C2A 2538  26.661  16.594   5.046  0.4108 -0.1316  0.4200
    1DPPC   C3A 2539  26.875  16.606   4.617 -0.1561  0.3401  0.0166
    1DPPC   C4A 2540  27.110  16.576   4.263 -0.3433  0.1914 -0.1294
    1DPPC   C1B 2541  26.596  17.479   5.491 -0.2077  0.1786 -0.0795
    1DPPC   C2B 2542  26.612  17.415   5.065  0.2569 -0.4769 -0.0814
    1DPPC   C3B 2543  26.839  17.536   4.722 -0.0860  0.1993  0.0515
    1DPPC   C4B 2544  26.786  17.451   4.262  0.0141 -0.1758  0.0908
    1DPPC   NC3 2545  30.130  14.656   6.600 -0.4533 -0.1060  0.1996
    1DPPC   PO4 2546   0.016  15.103   6.751  0.0890  0.0260 -0.1513
    1DPPC   GL1 2547   0.061  15.048   6.372 -0.0692 -0.0667 -0.2176
    1DPPC   GL2 2548  30.094  14.921   6.185 -0.0978 -0.1288  0.1022
    1DPPC   C1A 2549   0.044  15.311   5.977  0.0830 -0.0911  0.1089
    1DPPC   C2A 2550   0.176  15.324   5.560  0.2152 -0.1919 -0.1452
    1DPPC   C3A 2551   0.118  15.328   5.110 -0.1960  0.1697  0.1103
    1DPPC   C4A 2552   0.254  15.157   4.705 -0.0970  0.2699  0.1513
    1DPPC   C1B 2553  30.149  14.946   5.715  0.1904 -0.2059 -0.2992
    1DPPC   C2B 2554  30.150  14.929   5.329  0.1676  0.1252 -0.2384
    1DPPC   C3B 2555  30.084  14.902   4.909 -0.0157 -0.1937  0.2284
    1DPPC   C4B 2556  30.145  15.095   4.516 -0.0526 -0.1805 -0.0411
    1DPPC   NC3 2557   1.065  16.771   6.427  0.1385 -0.0345 -0.1281
    1DPPC   PO4 2558   1.466  16.872   6.198  0.0201  0.2727  0.1627
    1DPPC   GL1 2559   1.237  16.843   5.909 -0.2072 -0.1596 -0.0757
    1DPPC   GL2 2560   1.199  16.454   5.899  0.0229  0.0632 -0.2913
    1DPPC   C1A 2561   1.162  16.730   5.485 -0.2392 -0.2614  0.1620
    1DPPC   C2A 2562   1.111  16.785   5.018 -0.3615  0.2590 -0.0014
    1DPPC   C3A 2563   1.059  16.842   4.604  0.0082 -0.0729 -0.2192
    1DPPC   C4A 2564   0.862  16.691   4.224 -0.1871 -0.0450  0.1383
    1DPPC   C1B 2565   1.091  16.286   5.515  0.0067  0.0280  0.0647
    1DPPC   C2B 2566   1.075  16.194   5.057  0.1388 -0.1367 -0.3309
    1DPPC   C3B 2567   1.023  16.346   4.651  0.0154  0.1437  0.0577
    1DPPC   C4B 2568   0.841  16.067   4.366 -0.0028  0.2007  0.1570
    1DPPC   NC3 2569   3.946  27.355   7.096  0.1881  0.3192 -0.1390
    1DPPC   PO4 2570   4.045  27.744   7.169  0.0430 -0.0553  0.3416
    1DPPC   GL1 2571   3.830  27.694   6.725  0.2027 -0.1423  0.0958
    1DPPC   GL2 2572   4.051  27.905   6.585 -0.0481  0.0341 -0.0928
    1DPPC   C1A 2573   3.664  27.631   6.374 -0.2414 -0.0639 -0.0016
    1DPPC   C2A 2574   3.650  27.690   5.883 -0.0796 -0.1000 -0.1045
    1DPPC   C3A 2575   3.150  27.738   5.734 -0.0046 -0.3438 -0.0773
    1DPPC   C4A 2576   2.930  27.960   5.487 -0.1363 -0.0785 -0.2076
    1DPPC   C1B 2577   3.994  28.042   6.171  0.0956 -0.2135  0.1610
    1DPPC   C2B 2578   3.861  28.235   5.774 -0.0626  0.2098  0.0876
    1DPPC   C3B 2579   3.565  28.028   5.562  0.2486 -0.2241 -0.1208
    1DPPC   C4B 2580   3.352  28.074   5.154  0.1225 -0.3180  0.1797
    1DPPC   NC3 2581  25.651  18.735   6.515  0.0697 -0.0425  0.0634
    1DPPC   PO4 2582  25.621  18.735   6.052 -0.0302  0.0469 -0.3319
    1DPPC   GL1 2583  25.564  18.825   5.706 -0.0898 -0.0382 -0.0240
    1DPPC   GL2 2584  25.221  18.848   5.514  0.0089 -0.1914 -0.0710
    1DPPC   C1A 2585  25.761  18.998   5.355  0.1531 -0.1004 -0.1836
    1DPPC   C2A 2586  25.665  19.104   4.929 -0.0611  0.1178 -0.1636
    1DPPC   C3A 2587  25.637  19.130   4.481  0.1579  0.0033  0.0269
    1DPPC   C4A 2588  25.291  18.962   4.143 -0.1091  0.0214 -0.2097
    1DPPC   C1B 2589  25.167  18.873   5.095 -0.1043 -0.5137  0.0574
    1DPPC   C2B 2590  25.257  18.863   4.735  0.1599 -0.0175 -0.3716
    1DPPC   C3B 2591  25.118  18.617   4.435  0.1608  0.2517 -0.0219
    1DPPC   C4B 2592  24.750  18.467   4.253 -0.3653  0.1116 -0.1055
    1DPPC   NC3 2593   0.262  17.172   6.290  0.1006  0.0375 -0.0099
    1DPPC   PO4 2594  30.239  16.939   6.267 -0.1244 -0.3473  0.1959
    1DPPC   GL1 2595  30.209  16.914   5.860 -0.1553  0.1697  0.3107
    1DPPC   GL2 2596  29.998  17.060   5.638 -0.1501  0.0590  0.1813
    1DPPC   C1A 2597   0.049  17.073   5.425  0.0472 -0.0630  0.0402
    1DPPC   C2A 2598   0.028  17.579   5.229 -0.3310  0.0481 -0.0036
    1DPPC   C3A 2599  30.237  17.704   4.767  0.2767 -0.1103 -0.0587
    1DPPC   C4A 2600  30.206  17.652   4.392 -0.1573  0.1500 -0.1365
    1DPPC   C1B 2601  29.985  17.549   5.498 -0.4027 -0.0403  0.2631
    1DPPC   C2B 2602  29.695  17.735   5.179 -0.5009 -0.0526  0.0318
    1DPPC   C3B 2603  29.534  17.659   4.811  0.1824  0.0289  0.1429
    1DPPC   C4B 2604  29.760  17.465   4.460  0.3656 -0.3263 -0.2232
    1DPPC   NC3 2605   0.934  20.358   6.257 -0.1478 -0.1446 -0.0557
    1DPPC   PO4 2606   0.784  19.918   6.230 -0.0810 -0.0275  0.0999
    1DPPC   GL1 2607   0.728  19.917   5.804 -0.0352 -0.3230  0.5142
    1DPPC   GL2 2608   1.041  20.001   5.759 -0.1644  0.0520  0.2687
    1DPPC   C1A 2609   0.749  19.827   5.337 -0.0554  0.0939  0.2254
    1DPPC   C2A 2610   0.804  19.813   4.947  0.1492  0.1144  0.0338
    1DPPC   C3A 2611   0.753  19.730   4.573  0.4095  0.1125 -0.0797
    1DPPC   C4A 2612   0.755  19.387   4.208 -0.3468 -0.3079  0.0364
    1DPPC   C1B 2613   1.070  20.180   5.352 -0.1727 -0.0682 -0.0330
    1DPPC   C2B 2614   1.176  20.180   4.965  0.2817  0.0140  0.0622
    1DPPC   C3B 2615   1.036  20.239   4.553 -0.1316  0.0599 -0.1693
    1DPPC   C4B 2616   1.050  20.252   4.187 -0.0861  0.0607 -0.1600
    1DPPC   NC3 2617   6.010  21.514   5.890  0.1312 -0.2329  0.0896
    1DPPC   PO4 2618   6.424  21.470   5.671  0.1135 -0.3772 -0.5753
    1DPPC   GL1 2619   6.300  21.520   5.308  0.0341  0.1026 -0.0375
    1DPPC   GL2 2620   6.021  21.443   5.366  0.0386  0.0065 -0.1492
    1DPPC   C1A 2621   6.523  21.579   4.955 -0.1732  0.0592 -0.0730
    1DPPC   C2A 2622   6.478  21.740   4.587  0.1114 -0.3667  0.1345
    1DPPC   C3A 2623   6.311  21.833   4.217  0.1431  0.3483 -0.1069
    1DPPC   C4A 2624   6.030  21.861   3.780 -0.2662 -0.0767  0.1577
    1DPPC   C1B 2625   6.007  21.512   4.895  0.2102  0.1164 -0.1487
    1DPPC   C2B 2626   6.074  21.535   4.534  0.1207  0.3276 -0.2636
    1DPPC   C3B 2627   5.971  21.506   4.109 -0.1438  0.1731 -0.0766
    1DPPC   C4B 2628   5.928  21.264   3.650  0.0525 -0.0668 -0.0123
    1DPPC   NC3 2629   3.181  21.908   6.770  0.4405  0.0208 -0.0497
    1DPPC   PO4 2630   3.455  22.097   6.562 -0.2557 -0.0543  0.2586
    1DPPC   GL1 2631   3.648  22.240   6.210 -0.0094 -0.3203  0.3836
    1DPPC   GL2 2632   3.933  22.100   6.109 -0.0872 -0.2964  0.0376
    1DPPC   C1A 2633   3.750  22.427   5.817 -0.0105 -0.2352 -0.0076
    1DPPC   C2A 2634   3.826  22.688   5.400 -0.0257 -0.0769  0.0154
    1DPPC   C3A 2635   3.894  22.690   4.964  0.3891  0.0774 -0.0655
    1DPPC   C4A 2636   3.977  22.727   4.518  0.1544 -0.1905 -0.1696
    1DPPC   C1B 2637   4.081  22.101   5.623 -0.0724 -0.1157 -0.1178
    1DPPC   C2B 2638   4.127  22.302   5.156  0.2308  0.0979 -0.4802
    1DPPC   C3B 2639   4.137  22.210   4.622  0.0177  0.0478  0.0385
    1DPPC   C4B 2640   4.004  22.324   4.213  0.3712 -0.1191  0.0556
    1DPPC   NC3 2641  28.018  16.540   6.832 -0.0360  0.1729 -0.0401
    1DPPC   PO4 2642  27.814  16.312   6.473  0.1497 -0.2921 -0.0322
    1DPPC   GL1 2643  27.657  16.326   6.071 -0.0409 -0.0343 -0.3823
    1DPPC   GL2 2644  27.884  16.327   5.858  0.1320 -0.0574 -0.3729
    1DPPC   C1A 2645  27.539  16.687   5.758  0.0344  0.1093  0.3612
    1DPPC   C2A 2646  27.494  16.874   5.285 -0.1821  0.1049 -0.0151
    1DPPC   C3A 2647  27.289  16.801   4.867 -0.1897 -0.2342  0.3553
    1DPPC   C4A 2648  27.532  16.681   4.497  0.0545  0.3193  0.3123
    1DPPC   C1B 2649  28.076  16.235   5.477 -0.1209 -0.1056 -0.2148
    1DPPC   C2B 2650  28.114  16.291   5.121  0.0664  0.3402  0.1954
    1DPPC   C3B 2651  28.187  15.995   4.776  0.2044 -0.1184 -0.4160
    1DPPC   C4B 2652  28.144  15.962   4.417 -0.1886 -0.1654 -0.1898
    1DPPC   NC3 2653  25.354  14.425   6.221 -0.2496 -0.0433 -0.1320
    1DPPC   PO4 2654  25.110  14.154   6.251  0.3914 -0.0984 -0.0568
    1DPPC   GL1 2655  25.408  14.070   5.843  0.0028  0.2569  0.0403
    1DPPC   GL2 2656  25.626  13.969   5.840  0.0593  0.0765  0.1438
    1DPPC   C1A 2657  25.443  13.994   5.354  0.4090  0.0910 -0.0933
    1DPPC   C2A 2658  25.598  13.945   4.940  0.2383  0.0342 -0.0945
    1DPPC   C3A 2659  25.917  13.931   4.576  0.1275  0.0175  0.0019
    1DPPC   C4A 2660  26.243  13.704   4.317  0.5278  0.0435  0.0400
    1DPPC   C1B 2661  25.906  14.122   5.536  0.1938  0.1280  0.0595
    1DPPC   C2B 2662  25.997  14.316   5.156 -0.0818  0.0972 -0.2145
    1DPPC   C3B 2663  25.815  14.404   4.715 -0.1260  0.1754  0.0910
    1DPPC   C4B 2664  25.379  14.236   4.550 -0.0365  0.0897 -0.0587
    1DPPC   NC3 2665   4.857  22.330   6.505 -0.1972 -0.1087  0.1696
    1DPPC   PO4 2666   5.145  22.519   6.136  0.1116 -0.1801  0.2910
    1DPPC   GL1 2667   5.200  22.818   5.765 -0.2294 -0.0622 -0.0160
    1DPPC   GL2 2668   5.406  23.117   5.788  0.0887  0.1954  0.2075
    1DPPC   C1A 2669   5.376  22.779   5.353 -0.0396 -0.0932  0.0478
    1DPPC   C2A 2670   5.482  22.965   4.924  0.0585 -0.1153 -0.3016
    1DPPC   C3A 2671   5.441  23.255   4.651 -0.1675  0.2835 -0.2487
    1DPPC   C4A 2672   5.425  23.433   4.250  0.0677  0.1456 -0.0028
    1DPPC   C1B 2673   5.316  23.572   5.584  0.0659 -0.1605 -0.1335
    1DPPC   C2B 2674   5.254  23.808   5.206  0.0590  0.1027  0.0017
    1DPPC   C3B 2675   5.311  23.807   4.888 -0.1183 -0.3252  0.0897
    1DPPC   C4B 2676   5.527  23.846   4.572  0.1507  0.0339  0.0413
    1DPPC   NC3 2677  30.188  16.462   6.497 -0.0011 -0.1743 -0.0378
    1DPPC   PO4 2678  30.306  16.119   6.392  0.2369 -0.1257  0.2489
    1DPPC   GL1 2679  30.319  15.883   6.043  0.1948 -0.1210  0.2173
    1DPPC   GL2 2680   0.278  15.778   6.043  0.2179  0.0453 -0.3843
    1DPPC   C1A 2681  30.262  15.729   5.722 -0.2683 -0.2328  0.1336
    1DPPC   C2A 2682   0.094  15.797   5.329 -0.1832  0.0521 -0.0775
    1DPPC   C3A 2683   0.141  15.809   4.909  0.0188  0.2973  0.1647
    1DPPC   C4A 2684  30.326  15.570   4.597 -0.0741  0.1169 -0.2478
    1DPPC   C1B 2685   0.453  15.654   5.783 -0.0272 -0.2261  0.1754
    1DPPC   C2B 2686   0.534  15.613   5.392 -0.0884  0.0371  0.1532
    1DPPC   C3B 2687   0.541  15.548   4.925 -0.0668 -0.2186 -0.0630
    1DPPC   C4B 2688   0.462  15.651   4.520  0.1445 -0.2545  0.2679
    1DPPC   NC3 2689  29.639  24.017   7.194 -0.2151  0.0152  0.1206
    1DPPC   PO4 2690  30.003  23.801   6.951 -0.0606 -0.1303 -0.0973
    1DPPC   GL1 2691  29.995  23.825   6.463 -0.2673  0.0369  0.3076
    1DPPC   GL2 2692  30.167  24.173   6.343 -0.0761 -0.1438 -0.0398
    1DPPC   C1A 2693  30.267  23.700   6.067 -0.0178 -0.1141  0.1116
    1DPPC   C2A 2694   0.120  23.706   5.829 -0.0356 -0.0134 -0.2384
    1DPPC   C3A 2695   0.190  23.741   5.482  0.1159 -0.1396  0.0761
    1DPPC   C4A 2696   0.172  23.796   5.041  0.1172 -0.1218  0.1671
    1DPPC   C1B 2697  29.882  24.044   6.055  0.1181 -0.0550  0.0740
    1DPPC   C2B 2698  29.751  24.205   5.590 -0.0910  0.1597 -0.0755
    1DPPC   C3B 2699  29.428  24.309   5.245 -0.1087  0.1252 -0.1469
    1DPPC   C4B 2700  29.281  24.428   4.783 -0.2430  0.0375 -0.0171
    1DPPC   NC3 2701  20.026  17.220   5.660  0.2207  0.3613 -0.0518
    1DPPC   PO4 2702  20.212  17.582   5.488 -0.3155 -0.1154  0.0566
    1DPPC   GL1 2703  19.966  17.377   5.150  0.0604 -0.1449 -0.0948
    1DPPC   GL2 2704  20.115  17.506   4.857 -0.0551  0.2397 -0.2642
    1DPPC   C1A 2705  19.805  17.089   4.859  0.1294  0.0003  0.2835
    1DPPC   C2A 2706  19.871  16.899   4.372  0.1164  0.0990  0.0636
    1DPPC   C3A 2707  19.800  16.534   4.132 -0.1860 -0.1689  0.0825
    1DPPC   C4A 2708  19.656  16.120   4.154 -0.0646 -0.0284  0.1051
    1DPPC   C1B 2709  20.303  17.235   4.623  0.1832  0.1988 -0.1112
    1DPPC   C2B 2710  20.467  16.844   4.701  0.1213  0.1289  0.1842
    1DPPC   C3B 2711  20.513  16.427   4.868  0.0813 -0.0454  0.1838
    1DPPC   C4B 2712  20.584  15.996   4.796 -0.0013  0.0594 -0.1638
    1DPPC   NC3 2713   1.370  15.183   6.336  0.1916  0.0973 -0.1584
    1DPPC   PO4 2714   0.994  15.025   6.510  0.0929 -0.0714 -0.3465
    1DPPC   GL1 2715   1.067  14.881   6.112 -0.3160 -0.0349  0.0183
    1DPPC   GL2 2716   1.121  14.523   6.046 -0.1313  0.0025 -0.3682
    1DPPC   C1A 2717   1.079  14.777   5.659 -0.1436  0.4024  0.1566
    1DPPC   C2A 2718   1.054  14.828   5.250 -0.1794 -0.3894 -0.0805
    1DPPC   C3A 2719   1.133  14.795   4.802  0.2225  0.2502 -0.0458
    1DPPC   C4A 2720   0.994  14.862   4.340  0.3191 -0.0699 -0.1096
    1DPPC   C1B 2721   1.102  14.291   5.682  0.0146 -0.0708  0.1218
    1DPPC   C2B 2722   1.076  14.279   5.189  0.1203 -0.0474 -0.3396
    1DPPC   C3B 2723   0.973  14.321   4.748  0.2505 -0.0570 -0.3092
    1DPPC   C4B 2724   0.965  14.350   4.330 -0.1378 -0.2528 -0.2127
    1DPPC   NC3 2725  27.594  19.493   5.917 -0.0925  0.0691  0.1592
    1DPPC   PO4 2726  27.388  19.884   5.888  0.2555  0.0745 -0.3560
    1DPPC   GL1 2727  26.984  19.824   5.744 -0.2737  0.1275  0.0945
    1DPPC   GL2 2728  26.838  19.484   5.729 -0.0733 -0.0831  0.0422
    1DPPC   C1A 2729  26.910  19.906   5.344 -0.1679 -0.0058 -0.0594
    1DPPC   C2A 2730  26.917  19.949   4.898 -0.1427 -0.3034  0.0340
    1DPPC   C3A 2731  26.937  20.058   4.531 -0.3027 -0.1250 -0.0181
    1DPPC   C4A 2732  27.210  20.109   4.189 -0.2358  0.0200 -0.1016
    1DPPC   C1B 2733  27.009  19.443   5.345  0.0219 -0.2242  0.0814
    1DPPC   C2B 2734  26.970  19.436   4.976 -0.1914  0.1992  0.0932
    1DPPC   C3B 2735  26.887  19.571   4.533  0.2091 -0.2755  0.1017
    1DPPC   C4B 2736  26.882  19.764   4.151 -0.0224  0.0216 -0.1730
    1DPPC   NC3 2737   1.922  19.589   6.241  0.1109 -0.1549  0.3088
    1DPPC   PO4 2738   1.638  19.901   6.178 -0.1028 -0.1028  0.1983
    1DPPC   GL1 2739   1.767  19.928   5.794 -0.0168 -0.1976 -0.0100
    1DPPC   GL2 2740   2.066  19.930   5.841 -0.0124 -0.1192  0.1734
    1DPPC   C1A 2741   1.855  20.019   5.367 -0.1694  0.1020 -0.2151
    1DPPC   C2A 2742   1.938  19.989   4.927 -0.2818  0.1409  0.1074
    1DPPC   C3A 2743   1.950  20.016   4.583 -0.0248 -0.0554 -0.0095
    1DPPC   C4A 2744   1.872  20.368   4.302  0.0131 -0.1040  0.1459
    1DPPC   C1B 2745   2.266  19.619   5.594  0.3077 -0.1373  0.0368
    1DPPC   C2B 2746   2.310  19.661   5.219 -0.0687  0.2590  0.1550
    1DPPC   C3B 2747   2.427  19.645   4.840  0.2118 -0.0913  0.0119
    1DPPC   C4B 2748   2.323  19.474   4.533 -0.0072  0.0930 -0.0742
    1DPPC   NC3 2749   5.693   8.177   6.880  0.0537 -0.2199  0.0595
    1DPPC   PO4 2750   6.057   8.220   6.565 -0.0343 -0.0002 -0.2807
    1DPPC   GL1 2751   6.000   8.294   6.117 -0.2434 -0.0343  0.1113
    1DPPC   GL2 2752   6.191   8.485   5.978  0.4581  0.1412  0.0402
    1DPPC   C1A 2753   6.010   8.049   5.762 -0.2025  0.0358 -0.1750
    1DPPC   C2A 2754   5.921   7.676   5.451  0.1834 -0.2304 -0.0770
    1DPPC   C3A 2755   6.022   7.397   5.181  0.1606  0.0500 -0.0186
    1DPPC   C4A 2756   5.989   7.023   4.989  0.2631 -0.0992 -0.0777
    1DPPC   C1B 2757   6.164   8.552   5.560  0.1433  0.2281  0.0622
    1DPPC   C2B 2758   6.176   8.639   5.141  0.3767  0.2207  0.0401
    1DPPC   C3B 2759   6.337   8.744   4.767 -0.0235 -0.1027  0.3397
    1DPPC   C4B 2760   6.245   8.904   4.326  0.1052 -0.0453 -0.2099
    1DPPC   NC3 2761   8.635  16.549   6.144  0.0614  0.2577  0.0286
    1DPPC   PO4 2762   8.380  16.857   6.338  0.1345 -0.1304  0.3235
    1DPPC   GL1 2763   8.194  16.812   5.982 -0.0771  0.2868  0.2250
    1DPPC   GL2 2764   8.188  16.437   5.860  0.0816 -0.0988  0.1431
    1DPPC   C1A 2765   8.288  16.756   5.546  0.2928  0.0516 -0.0386
    1DPPC   C2A 2766   8.107  16.487   5.216  0.0640  0.2286  0.0758
    1DPPC   C3A 2767   8.262  16.038   5.044 -0.2273  0.2526  0.0905
    1DPPC   C4A 2768   8.256  15.678   4.674 -0.1050 -0.1953  0.0893
    1DPPC   C1B 2769   8.359  16.188   5.522 -0.3103 -0.1109  0.0229
    1DPPC   C2B 2770   8.724  16.183   5.180 -0.1220  0.0507  0.0679
    1DPPC   C3B 2771   8.643  16.015   4.741  0.0149  0.1443 -0.0079
    1DPPC   C4B 2772   8.808  16.135   4.294 -0.0131 -0.1097  0.2835
    1DPPC   NC3 2773  10.758  30.290   6.977  0.1909 -0.1399 -0.0511
    1DPPC   PO4 2774  11.077  30.173   6.824  0.0031  0.3416 -0.1760
    1DPPC   GL1 2775  11.318  30.182   6.374  0.3455  0.3252  0.2454
    1DPPC   GL2 2776  11.392   0.071   6.111  0.0215  0.1788 -0.1941
    1DPPC   C1A 2777  11.443  29.941   6.007  0.4212 -0.0426 -0.1787
    1DPPC   C2A 2778  11.458  30.052   5.504 -0.0912 -0.3219  0.1257
    1DPPC   C3A 2779  11.335  29.897   5.076 -0.0091 -0.1202  0.1585
    1DPPC   C4A 2780  11.230  29.834   4.615 -0.0628  0.0383 -0.3408
    1DPPC   C1B 2781  11.649   0.079   5.792  0.1326 -0.1400  0.2150
    1DPPC   C2B 2782  11.935  30.235   5.546 -0.2954  0.1818 -0.1350
    1DPPC   C3B 2783  12.300  30.026   5.437 -0.0672  0.2704 -0.3226
    1DPPC   C4B 2784  12.636  29.817   5.178  0.0178 -0.0364 -0.3726
    1DPPC   NC3 2785   9.077  19.771   5.958 -0.3375 -0.2864  0.4528
    1DPPC   PO4 2786   8.944  19.305   5.987 -0.2484  0.0857 -0.1422
    1DPPC   GL1 2787   8.890  19.512   5.565 -0.0784 -0.1770 -0.2466
    1DPPC   GL2 2788   8.654  19.628   5.353  0.2580 -0.0070  0.0783
    1DPPC   C1A 2789   9.204  19.559   5.268  0.1898 -0.0457 -0.0295
    1DPPC   C2A 2790   9.381  19.222   4.889 -0.1458  0.1178 -0.2959
    1DPPC   C3A 2791   9.467  19.026   4.360 -0.1422 -0.0473 -0.0335
    1DPPC   C4A 2792   9.572  18.622   4.244 -0.0216  0.4324  0.0635
    1DPPC   C1B 2793   8.790  19.824   5.035 -0.1850 -0.1589 -0.2968
    1DPPC   C2B 2794   9.089  19.708   4.667  0.3059  0.3051  0.1292
    1DPPC   C3B 2795   9.147  19.381   4.351  0.0039  0.0075  0.1910
    1DPPC   C4B 2796   9.039  19.212   4.092 -0.0106  0.6068 -0.0076
    1DPPC   NC3 2797   0.518  11.662   6.927  0.3832  0.0999  0.0730
    1DPPC   PO4 2798   0.274  11.337   6.795  0.0294 -0.1650  0.2737
    1DPPC   GL1 2799   0.054  11.300   6.450 -0.0718 -0.2442  0.1846
    1DPPC   GL2 2800  30.075  11.040   6.468 -0.1224  0.0763  0.0984
    1DPPC   C1A 2801   0.011  11.228   6.038  0.0837  0.0913 -0.1125
    1DPPC   C2A 2802  30.203  10.977   5.637 -0.1205  0.3482  0.2787
    1DPPC   C3A 2803  30.218  10.990   5.201 -0.1677  0.0619  0.1570
    1DPPC   C4A 2804   0.021  11.167   4.837 -0.2650  0.1220  0.0416
    1DPPC   C1B 2805  30.136  10.786   6.088 -0.2096 -0.1035 -0.0226
    1DPPC   C2B 2806   0.080  10.536   5.855 -0.3163  0.2047 -0.3718
    1DPPC   C3B 2807   0.173  10.252   5.570  0.1885  0.2403 -0.0163
    1DPPC   C4B 2808   0.514  10.105   5.366 -0.0930  0.2047 -0.3223
    1DPPC   NC3 2809  29.636  18.751   6.449  0.4898 -0.0027 -0.3158
    1DPPC   PO4 2810  29.679  19.161   6.217 -0.0288 -0.1274  0.2274
    1DPPC   GL1 2811  29.408  19.316   5.876 -0.2131 -0.0091 -0.0450
    1DPPC   GL2 2812  29.123  19.210   5.861  0.0916  0.1418 -0.1009
    1DPPC   C1A 2813  29.305  19.350   5.403 -0.2955 -0.0873  0.4023
    1DPPC   C2A 2814  29.268  19.438   4.956 -0.0098  0.0319  0.1758
    1DPPC   C3A 2815  29.446  19.551   4.540  0.3651  0.2048 -0.0041
    1DPPC   C4A 2816  29.671  19.652   4.210  0.0562  0.2987  0.1021
    1DPPC   C1B 2817  28.847  19.238   5.482  0.0736 -0.0381  0.2381
    1DPPC   C2B 2818  28.791  19.229   5.088  0.1487  0.0423  0.0616
    1DPPC   C3B 2819  28.817  19.271   4.623  0.2098 -0.1352  0.0438
    1DPPC   C4B 2820  29.005  19.080   4.174  0.1418  0.0423 -0.0228
    1DPPC   NC3 2821   7.629  15.405   6.838 -0.1368  0.1361 -0.2755
    1DPPC   PO4 2822   8.124  15.355   6.603  0.0810 -0.0748  0.0688
    1DPPC   GL1 2823   8.306  15.118   6.257 -0.0950  0.1692 -0.1897
    1DPPC   GL2 2824   8.109  15.332   5.981 -0.4258  0.0755  0.0055
    1DPPC   C1A 2825   8.395  15.022   5.818 -0.1919 -0.1857 -0.0373
    1DPPC   C2A 2826   8.323  14.835   5.490  0.1045  0.0936 -0.0318
    1DPPC   C3A 2827   8.334  14.531   5.070  0.2586  0.1904 -0.0525
    1DPPC   C4A 2828   8.236  14.745   4.616  0.1023 -0.0737  0.0116
    1DPPC   C1B 2829   7.917  15.273   5.627  0.1180  0.3171 -0.0452
    1DPPC   C2B 2830   8.116  15.263   5.313 -0.1071 -0.1599 -0.0822
    1DPPC   C3B 2831   8.051  15.232   4.870 -0.1915  0.1733  0.1793
    1DPPC   C4B 2832   7.961  15.319   4.543  0.0024  0.1165 -0.1900
    1DPPC   NC3 2833   6.581  18.639   6.195 -0.1621  0.2470 -0.4735
    1DPPC   PO4 2834   6.763  18.965   5.831 -0.4357 -0.0437  0.4312
    1DPPC   GL1 2835   7.167  18.879   5.558 -0.3836  0.3361  0.1148
    1DPPC   GL2 2836   7.474  18.788   5.445 -0.1768  0.1137 -0.0794
    1DPPC   C1A 2837   7.181  18.999   5.108 -0.1556 -0.1679 -0.0729
    1DPPC   C2A 2838   7.182  19.183   4.637  0.2667  0.0599  0.0973
    1DPPC   C3A 2839   7.108  19.040   4.258  0.1586 -0.4245 -0.0977
    1DPPC   C4A 2840   7.490  18.981   4.047 -0.3667  0.0616 -0.0213
    1DPPC   C1B 2841   7.668  18.738   5.145  0.0737  0.1041 -0.2186
    1DPPC   C2B 2842   7.936  18.744   4.846  0.2437  0.0446 -0.0984
    1DPPC   C3B 2843   8.313  18.849   4.676 -0.1663 -0.4712  0.1176
    1DPPC   C4B 2844   8.568  19.051   4.330 -0.1165  0.1277  0.3067
    1DPPC   NC3 2845   6.803  25.137   6.679 -0.4148 -0.0280  0.2034
    1DPPC   PO4 2846   7.139  25.056   6.424  0.2346  0.0800  0.0168
    1DPPC   GL1 2847   6.874  25.196   6.128 -0.1839  0.2353  0.0425
    1DPPC   GL2 2848   6.553  25.124   6.001  0.1933  0.0215 -0.1118
    1DPPC   C1A 2849   6.905  25.431   5.747  0.4601  0.0474 -0.0584
    1DPPC   C2A 2850   7.019  25.806   5.476 -0.0126 -0.0488 -0.0580
    1DPPC   C3A 2851   6.906  25.740   4.952 -0.0033  0.0341 -0.2282
    1DPPC   C4A 2852   6.793  25.883   4.513 -0.0285  0.5774  0.0141
    1DPPC   C1B 2853   6.339  25.227   5.674 -0.2593  0.0228  0.0836
    1DPPC   C2B 2854   6.527  25.647   5.407 -0.2534  0.3933  0.0415
    1DPPC   C3B 2855   6.583  26.038   5.256 -0.0650 -0.0721  0.0122
    1DPPC   C4B 2856   6.512  26.443   4.983 -0.0413 -0.0174  0.3070
    1DPPC   NC3 2857   1.967  20.234   6.224 -0.0973  0.1244  0.2354
    1DPPC   PO4 2858   2.234  20.504   6.240 -0.1215 -0.0170 -0.0039
    1DPPC   GL1 2859   2.420  20.836   5.988 -0.0816  0.1336  0.2929
    1DPPC   GL2 2860   2.483  20.594   5.801 -0.0410  0.0289  0.1438
    1DPPC   C1A 2861   2.343  21.036   5.608  0.0604 -0.0414 -0.0275
    1DPPC   C2A 2862   2.474  21.053   5.187  0.1342  0.0507 -0.2779
    1DPPC   C3A 2863   2.636  21.171   4.820 -0.1189 -0.0037  0.1600
    1DPPC   C4A 2864   2.576  21.310   4.357 -0.2691  0.2742  0.1391
    1DPPC   C1B 2865   2.543  20.574   5.395  0.0868 -0.3263 -0.1550
    1DPPC   C2B 2866   2.637  20.700   4.938 -0.0690 -0.2200  0.1546
    1DPPC   C3B 2867   2.692  20.789   4.509 -0.1993 -0.0924  0.0447
    1DPPC   C4B 2868   2.799  20.960   4.072 -0.3778  0.1774  0.3324
    1DPPC   NC3 2869  29.327  23.234   6.960 -0.2254 -0.5459 -0.1262
    1DPPC   PO4 2870  29.017  22.908   6.851  0.0215  0.0348 -0.0320
    1DPPC   GL1 2871  29.068  22.695   6.358 -0.0729 -0.0871  0.0955
    1DPPC   GL2 2872  28.916  22.393   6.362  0.2009 -0.1692 -0.3341
    1DPPC   C1A 2873  29.006  22.652   5.954 -0.3128 -0.1287  0.0901
    1DPPC   C2A 2874  29.049  22.693   5.512  0.0580 -0.0566  0.0449
    1DPPC   C3A 2875  29.324  22.802   5.109 -0.0850 -0.1571 -0.1517
    1DPPC   C4A 2876  29.369  23.055   4.767 -0.0114  0.0286  0.0452
    1DPPC   C1B 2877  28.589  22.198   6.073 -0.0203  0.1540 -0.1843
    1DPPC   C2B 2878  28.472  22.088   5.743 -0.2011  0.2337  0.1337
    1DPPC   C3B 2879  28.347  22.232   5.222  0.0782  0.0232 -0.0545
    1DPPC   C4B 2880  28.394  22.387   4.867 -0.1738  0.3340 -0.0007
    1DPPC   NC3 2881   3.216  13.656   6.501 -0.1806 -0.0445 -0.0534
    1DPPC   PO4 2882   3.647  13.749   6.365  0.2727 -0.0015 -0.1327
    1DPPC   GL1 2883   3.627  13.625   6.076  0.0490 -0.1262  0.0287
    1DPPC   GL2 2884   3.646  13.439   5.878 -0.0377 -0.1346 -0.1338
    1DPPC   C1A 2885   3.306  13.702   5.721  0.2552 -0.0844 -0.0707
    1DPPC   C2A 2886   3.061  13.415   5.393 -0.2068 -0.1051 -0.3626
    1DPPC   C3A 2887   2.971  13.284   5.079  0.1341 -0.3264  0.1130
    1DPPC   C4A 2888   3.021  12.978   4.715 -0.0410  0.2673  0.0394
    1DPPC   C1B 2889   3.634  13.420   5.422  0.4053 -0.1186 -0.0155
    1DPPC   C2B 2890   3.476  13.649   5.139  0.0962  0.0368  0.0580
    1DPPC   C3B 2891   3.542  13.748   4.817  0.0884  0.0666 -0.0106
    1DPPC   C4B 2892   3.695  13.407   4.477 -0.2804 -0.3212  0.0347
    1DPPC   NC3 2893   7.223  18.473   5.845 -0.0466 -0.0940 -0.0687
    1DPPC   PO4 2894   7.227  17.987   5.868 -0.2082 -0.2635 -0.0992
    1DPPC   GL1 2895   7.388  17.982   5.499  0.2299 -0.0056  0.2504
    1DPPC   GL2 2896   7.360  17.648   5.463 -0.0384 -0.0467  0.0802
    1DPPC   C1A 2897   7.302  18.036   5.029  0.0989 -0.3820 -0.0083
    1DPPC   C2A 2898   7.301  18.076   4.642 -0.2051 -0.1494  0.0458
    1DPPC   C3A 2899   7.244  17.956   4.246 -0.0033 -0.0336  0.1110
    1DPPC   C4A 2900   7.149  17.938   3.837 -0.2443 -0.1745 -0.1359
    1DPPC   C1B 2901   7.215  17.492   5.085 -0.0421 -0.3845 -0.1683
    1DPPC   C2B 2902   6.830  17.219   4.852 -0.2706  0.1465 -0.2003
    1DPPC   C3B 2903   6.803  17.309   4.472 -0.2615 -0.0319  0.0321
    1DPPC   C4B 2904   6.626  17.384   4.078 -0.2476 -0.3372 -0.1715
    1DPPC   NC3 2905  27.268  21.513   6.717  0.0681 -0.2938  0.1548
    1DPPC   PO4 2906  27.532  21.811   6.589 -0.0762  0.2549  0.0421
    1DPPC   GL1 2907  27.410  21.776   6.267 -0.1023 -0.1109  0.2010
    1DPPC   GL2 2908  27.199  21.557   6.219  0.1135  0.0448 -0.3810
    1DPPC   C1A 2909  27.162  21.873   5.869 -0.1563  0.0507 -0.2347
    1DPPC   C2A 2910  27.112  21.909   5.472  0.1905 -0.1594 -0.2626
    1DPPC   C3A 2911  27.121  21.946   5.065  0.1289 -0.2483 -0.0949
    1DPPC   C4A 2912  27.126  21.863   4.729 -0.2888 -0.2029  0.3576
    1DPPC   C1B 2913  27.332  21.275   5.860  0.0525 -0.0294  0.1816
    1DPPC   C2B 2914  27.220  21.401   5.363 -0.3672  0.1469  0.1749
    1DPPC   C3B 2915  27.339  21.350   4.872 -0.2285 -0.3175  0.0562
    1DPPC   C4B 2916  27.481  21.554   4.533  0.2810 -0.0416 -0.0249
    1DPPC   NC3 2917   4.314  15.567   6.334 -0.0323 -0.1331  0.1294
    1DPPC   PO4 2918   4.425  15.231   6.584  0.1580  0.1447 -0.1828
    1DPPC   GL1 2919   4.490  15.092   6.201  0.1752  0.0755  0.1221
    1DPPC   GL2 2920   4.239  15.066   5.941  0.0474 -0.1945  0.0540
    1DPPC   C1A 2921   4.725  14.968   5.924  0.0859  0.1645 -0.2002
    1DPPC   C2A 2922   5.055  14.646   5.638  0.0026 -0.1633 -0.0030
    1DPPC   C3A 2923   5.507  14.503   5.722  0.4083  0.1168 -0.3034
    1DPPC   C4A 2924   6.003  14.609   5.739 -0.0597  0.1264 -0.1192
    1DPPC   C1B 2925   3.919  14.953   5.583 -0.3975 -0.0647  0.1160
    1DPPC   C2B 2926   3.861  14.842   5.202  0.1466  0.2454 -0.0614
    1DPPC   C3B 2927   3.994  14.859   4.899  0.0933 -0.1232  0.0054
    1DPPC   C4B 2928   4.259  14.918   4.570 -0.0644 -0.0647  0.0514
    1DPPC   NC3 2929  26.465  15.992   6.524  0.0188  0.3257 -0.0026
    1DPPC   PO4 2930  26.764  16.146   6.447  0.0110  0.0067 -0.2696
    1DPPC   GL1 2931  26.892  16.147   6.037 -0.1874  0.1287  0.1023
    1DPPC   GL2 2932  26.700  16.302   5.804 -0.1339 -0.0166 -0.0387
    1DPPC   C1A 2933  27.326  16.170   5.775  0.3604  0.1974  0.1152
    1DPPC   C2A 2934  27.506  16.269   5.345  0.0425 -0.1362 -0.1031
    1DPPC   C3A 2935  27.599  16.349   4.989 -0.1070 -0.1690 -0.0688
    1DPPC   C4A 2936  27.931  16.410   4.629  0.0068 -0.0900  0.2718
    1DPPC   C1B 2937  26.750  16.158   5.365  0.0260  0.0942 -0.1243
    1DPPC   C2B 2938  26.759  16.050   5.008 -0.0844 -0.0161 -0.1168
    1DPPC   C3B 2939  26.758  15.746   4.565 -0.0287 -0.1988 -0.0819
    1DPPC   C4B 2940  26.854  15.739   4.148  0.0034 -0.0784  0.3394
    1DPPC   NC3 2941   2.227   7.769   6.293  0.0868  0.0186  0.0345
    1DPPC   PO4 2942   2.632   7.876   6.351  0.0044  0.0380 -0.1799
    1DPPC   GL1 2943   2.650   7.888   5.942 -0.1518  0.0958 -0.1542
    1DPPC   GL2 2944   2.799   8.102   5.784 -0.2493  0.3197  0.1597
    1DPPC   C1A 2945   2.718   7.528   5.693 -0.0828  0.1172 -0.0493
    1DPPC   C2A 2946   2.741   7.454   5.223 -0.0383 -0.0850 -0.2133
    1DPPC   C3A 2947   2.731   7.678   4.933  0.1624 -0.0011  0.2545
    1DPPC   C4A 2948   2.629   7.748   4.514 -0.0686  0.0226  0.1007
    1DPPC   C1B 2949   2.508   8.372   5.680 -0.1333  0.5746 -0.0280
    1DPPC   C2B 2950   2.326   8.668   5.449 -0.4846 -0.0783 -0.4751
    1DPPC   C3B 2951   2.171   9.001   5.095  0.0087  0.1609 -0.0733
    1DPPC   C4B 2952   2.179   8.991   4.690 -0.2526  0.1189  0.1126
    1DPPC   NC3 2953  27.657  15.854   6.367  0.0823  0.3124  0.2789
    1DPPC   PO4 2954  28.064  15.605   6.286 -0.2051  0.1124  0.0381
    1DPPC   GL1 2955  28.192  15.413   5.938  0.0062  0.0380 -0.1170
    1DPPC   GL2 2956  28.006  15.188   5.952  0.0465  0.2616 -0.1680
    1DPPC   C1A 2957  28.239  15.320   5.560  0.2118  0.0417  0.0418
    1DPPC   C2A 2958  28.110  15.178   5.204  0.0378 -0.2056 -0.0483
    1DPPC   C3A 2959  27.950  15.083   4.841  0.2117 -0.2706  0.1763
    1DPPC   C4A 2960  28.138  15.099   4.493 -0.1756 -0.0339  0.1115
    1DPPC   C1B 2961  27.745  15.293   5.632  0.2124 -0.1150 -0.0598
    1DPPC   C2B 2962  27.606  15.321   5.214 -0.2812  0.0793 -0.2171
    1DPPC   C3B 2963  27.494  15.267   4.836  0.2457 -0.4176 -0.2547
    1DPPC   C4B 2964  27.529  14.993   4.584  0.1450  0.0461  0.1598
    1DPPC   NC3 2965   2.058  18.672   6.422 -0.1168  0.1448 -0.2613
    1DPPC   PO4 2966   2.443  18.805   6.232  0.1167 -0.1627  0.1279
    1DPPC   GL1 2967   2.475  18.589   5.852 -0.0230  0.0416 -0.1431
    1DPPC   GL2 2968   2.431  18.220   5.695 -0.1552 -0.0755  0.2698
    1DPPC   C1A 2969   2.605  18.682   5.412 -0.2382 -0.1470 -0.2555
    1DPPC   C2A 2970   2.773  18.529   4.995  0.0046 -0.1075  0.4716
    1DPPC   C3A 2971   2.749  18.501   4.557  0.5931 -0.0429 -0.0382
    1DPPC   C4A 2972   2.942  18.369   4.231  0.2340  0.1944 -0.1082
    1DPPC   C1B 2973   2.484  18.049   5.309  0.1167  0.0451  0.2010
    1DPPC   C2B 2974   2.513  18.030   4.864  0.2480 -0.1978  0.1373
    1DPPC   C3B 2975   2.592  17.853   4.416 -0.1807 -0.0982 -0.0536
    1DPPC   C4B 2976   2.899  17.802   4.093 -0.1989 -0.2285 -0.1649
    1DPPC   NC3 2977   2.279  15.027   6.627  0.0036 -0.1006  0.0537
    1DPPC   PO4 2978   1.844  15.005   6.358  0.3317  0.0265  0.0783
    1DPPC   GL1 2979   1.896  15.136   5.862  0.0562 -0.0062  0.2374
    1DPPC   GL2 2980   2.166  15.208   5.666 -0.1352  0.1227 -0.2342
    1DPPC   C1A 2981   1.708  15.124   5.472 -0.1501 -0.0144 -0.2401
    1DPPC   C2A 2982   1.770  15.025   5.124 -0.1297  0.0240 -0.3563
    1DPPC   C3A 2983   1.748  15.006   4.625 -0.0447  0.0714 -0.0544
    1DPPC   C4A 2984   1.688  14.855   4.239 -0.0949 -0.1003  0.1800
    1DPPC   C1B 2985   2.204  15.195   5.224  0.0306 -0.3935 -0.1062
    1DPPC   C2B 2986   2.199  15.179   4.820  0.2191 -0.2134  0.0607
    1DPPC   C3B 2987   2.115  15.125   4.399 -0.1913  0.1401 -0.1809
    1DPPC   C4B 2988   1.930  15.370   4.097 -0.1114  0.0880 -0.2570
    1DPPC   NC3 2989  24.610  19.660   6.294  0.2356  0.0469 -0.0917
    1DPPC   PO4 2990  24.663  20.168   6.379 -0.1858  0.4174  0.1568
    1DPPC   GL1 2991  24.717  20.511   5.974 -0.1449  0.0685 -0.1431
    1DPPC   GL2 2992  24.969  20.725   5.934 -0.0354  0.1676  0.0567
    1DPPC   C1A 2993  24.712  20.604   5.515  0.2208  0.1409 -0.0943
    1DPPC   C2A 2994  24.657  20.810   5.248 -0.2038 -0.0949  0.0674
    1DPPC   C3A 2995  24.725  20.626   4.875 -0.1142 -0.1060  0.0112
    1DPPC   C4A 2996  24.801  20.613   4.501 -0.3261 -0.0605  0.1703
    1DPPC   C1B 2997  25.059  20.966   5.474  0.1066  0.1781 -0.0053
    1DPPC   C2B 2998  25.056  21.117   5.036 -0.0673  0.2555 -0.0719
    1DPPC   C3B 2999  25.052  21.043   4.642  0.0082 -0.2531  0.3173
    1DPPC   C4B 3000  25.289  20.842   4.379  0.1617 -0.1013 -0.0096
    1DPPC   NC3 3001   4.299  21.826   6.425  0.0313  0.2074 -0.0174
    1DPPC   PO4 3002   4.774  21.846   6.295 -0.2399 -0.2236 -0.0269
    1DPPC   GL1 3003   4.848  22.122   5.940  0.1251 -0.2217  0.1060
    1DPPC   GL2 3004   5.224  22.159   5.718 -0.0146  0.0012  0.0747
    1DPPC   C1A 3005   4.602  22.213   5.587 -0.0243  0.1363 -0.0456
    1DPPC   C2A 3006   4.688  22.345   5.139 -0.3561  0.2021 -0.1656
    1DPPC   C3A 3007   4.496  22.578   4.796 -0.0883  0.0040  0.0022
    1DPPC   C4A 3008   4.468  22.803   4.404  0.1470 -0.0617 -0.0636
    1DPPC   C1B 3009   5.146  22.336   5.429 -0.1896  0.0388 -0.2987
    1DPPC   C2B 3010   5.173  22.345   5.029 -0.0570 -0.1524  0.0889
    1DPPC   C3B 3011   5.117  22.470   4.651 -0.4100 -0.0279 -0.0907
    1DPPC   C4B 3012   4.997  22.622   4.261  0.3167 -0.0225 -0.1311
    1DPPC   NC3 3013  26.112  20.043   6.390 -0.3152 -0.2703 -0.1463
    1DPPC   PO4 3014  25.974  19.659   6.253  0.1467 -0.4388 -0.0991
    1DPPC   GL1 3015  25.919  19.558   5.807 -0.1978  0.3276  0.1481
    1DPPC   GL2 3016  25.951  19.264   5.789  0.0462 -0.2853  0.0171
    1DPPC   C1A 3017  25.972  19.907   5.455 -0.0772 -0.1984 -0.2473
    1DPPC   C2A 3018  25.899  19.871   5.053  0.2216 -0.0581  0.2113
    1DPPC   C3A 3019  25.924  20.046   4.635  0.2085 -0.0303 -0.2752
    1DPPC   C4A 3020  26.033  20.017   4.345 -0.1597 -0.1169 -0.3917
    1DPPC   C1B 3021  26.031  19.427   5.311 -0.0017  0.1762 -0.1834
    1DPPC   C2B 3022  25.972  19.467   4.849  0.3310  0.1436  0.1350
    1DPPC   C3B 3023  25.865  19.576   4.442  0.0050 -0.0267  0.1851
    1DPPC   C4B 3024  26.047  19.424   3.937 -0.1533 -0.0893  0.3858
    1DPPC   NC3 3025   7.992  13.957   6.627 -0.1682  0.0849  0.3244
    1DPPC   PO4 3026   8.366  14.205   6.779  0.3743  0.2000 -0.1191
    1DPPC   GL1 3027   8.344  14.209   6.385  0.2364  0.2362 -0.2714
    1DPPC   GL2 3028   8.078  14.287   6.279  0.0270 -0.0543 -0.2025
    1DPPC   C1A 3029   8.607  14.003   6.093 -0.0000 -0.0486 -0.0175
    1DPPC   C2A 3030   8.465  13.749   5.826 -0.0338 -0.2752  0.0069
    1DPPC   C3A 3031   8.474  13.557   5.442  0.1161 -0.0858 -0.1308
    1DPPC   C4A 3032   8.669  13.665   5.077  0.0833  0.0063 -0.1236
    1DPPC   C1B 3033   8.178  14.664   6.073 -0.2256 -0.0597  0.1992
    1DPPC   C2B 3034   7.906  14.849   5.906 -0.0616  0.2569  0.3886
    1DPPC   C3B 3035   7.815  14.715   5.494  0.2361 -0.0518  0.2529
    1DPPC   C4B 3036   7.949  14.799   5.097 -0.3173 -0.0221  0.1841
    1DPPC   NC3 3037   8.631   6.251   6.719 -0.2865  0.0569  0.1418
    1DPPC   PO4 3038   8.751   5.895   6.891  0.1301 -0.2549 -0.3444
    1DPPC   GL1 3039   8.770   5.746   6.491  0.3483 -0.3155  0.2896
    1DPPC   GL2 3040   8.381   5.511   6.320 -0.0862 -0.2188  0.2916
    1DPPC   C1A 3041   8.746   5.818   6.082 -0.4693 -0.0223  0.0398
    1DPPC   C2A 3042   8.718   5.981   5.603  0.2284  0.0953 -0.3093
    1DPPC   C3A 3043   8.695   6.029   5.208  0.4044 -0.0305 -0.3508
    1DPPC   C4A 3044   8.868   5.981   4.797 -0.0055  0.1904 -0.0420
    1DPPC   C1B 3045   8.460   5.557   5.848 -0.1114 -0.1099 -0.2192
    1DPPC   C2B 3046   8.488   5.491   5.446 -0.2441 -0.1445 -0.2624
    1DPPC   C3B 3047   8.282   5.757   5.046 -0.4114  0.1630  0.1598
    1DPPC   C4B 3048   8.289   5.547   4.727 -0.2355  0.0873  0.2560
    1DPPC   NC3 3049  29.567  22.182   6.815 -0.4499  0.0115  0.0450
    1DPPC   PO4 3050  29.305  22.484   6.704  0.2138 -0.1625  0.0921
    1DPPC   GL1 3051  29.562  22.352   6.291 -0.1546  0.1317 -0.0884
    1DPPC   GL2 3052  29.537  21.961   6.290  0.0788 -0.1375 -0.3715
    1DPPC   C1A 3053  29.489  22.436   5.885 -0.3823 -0.1490  0.1228
    1DPPC   C2A 3054  29.477  22.423   5.463 -0.1387 -0.2136 -0.2648
    1DPPC   C3A 3055  29.384  22.287   5.157 -0.0009  0.2502 -0.0312
    1DPPC   C4A 3056  29.377  22.368   4.832  0.1179 -0.1356 -0.1263
    1DPPC   C1B 3057  29.651  21.897   5.863 -0.0253 -0.1407  0.0266
    1DPPC   C2B 3058  29.621  21.946   5.450 -0.1627 -0.1197 -0.1279
    1DPPC   C3B 3059  29.816  21.962   5.118 -0.0315  0.4014  0.0479
    1DPPC   C4B 3060  30.228  22.147   4.985  0.3054 -0.0301 -0.1746
    1DPPC   NC3 3061   1.591  12.761   6.664 -0.3784 -0.2830 -0.1694
    1DPPC   PO4 3062   1.225  12.864   6.460  0.1854  0.1186  0.1344
    1DPPC   GL1 3063   0.870  12.715   6.125  0.1480 -0.0835 -0.0216
    1DPPC   GL2 3064   0.591  12.496   6.136  0.0588 -0.1594  0.0682
    1DPPC   C1A 3065   0.769  12.664   5.689  0.0655 -0.0059  0.0512
    1DPPC   C2A 3066   0.741  12.385   5.388  0.2424  0.0064  0.0626
    1DPPC   C3A 3067   0.735  12.209   4.959 -0.2239 -0.0462 -0.1298
    1DPPC   C4A 3068   0.819  11.777   4.738  0.3248 -0.2264  0.0576
    1DPPC   C1B 3069   0.624  12.236   5.899  0.0570 -0.3835 -0.0863
    1DPPC   C2B 3070   0.455  11.923   5.627 -0.0702 -0.0555  0.1898
    1DPPC   C3B 3071   0.445  11.805   5.155  0.0294 -0.1314  0.0315
    1DPPC   C4B 3072   0.386  11.515   4.783 -0.1582 -0.1569  0.0375
    1DPPC   NC3 3073  29.190  19.695   6.310 -0.1477  0.1536  0.1290
    1DPPC   PO4 3074  28.895  19.439   6.326  0.0394  0.0126  0.1616
    1DPPC   GL1 3075  28.853  19.637   5.900  0.1488  0.0844 -0.0922
    1DPPC   GL2 3076  28.516  19.563   5.746 -0.0917 -0.1881 -0.1431
    1DPPC   C1A 3077  28.920  19.702   5.499  0.0797 -0.2256 -0.0389
    1DPPC   C2A 3078  28.868  19.820   5.125  0.0394  0.1438 -0.1960
    1DPPC   C3A 3079  28.943  19.843   4.657  0.0503  0.1654  0.0050
    1DPPC   C4A 3080  29.043  19.738   4.220 -0.1326 -0.1730  0.3207
    1DPPC   C1B 3081  28.477  19.566   5.288 -0.0504  0.2149  0.2011
    1DPPC   C2B 3082  28.496  19.601   4.894 -0.4883  0.2006  0.0266
    1DPPC   C3B 3083  28.468  19.726   4.547  0.0133  0.1272 -0.0851
    1DPPC   C4B 3084  28.566  19.522   4.184 -0.0338 -0.2857  0.0072
    1DPPC   NC3 3085   0.830  18.164   6.474  0.2325  0.3017  0.2148
    1DPPC   PO4 3086   1.111  17.944   6.298  0.2660 -0.5735  0.2838
    1DPPC   GL1 3087   1.234  18.076   5.858  0.2039  0.3213 -0.1101
    1DPPC   GL2 3088   1.608  18.174   5.724 -0.1901 -0.1053  0.2494
    1DPPC   C1A 3089   1.330  18.044   5.304 -0.2136  0.1033 -0.0915
    1DPPC   C2A 3090   1.297  18.108   5.004  0.1404 -0.3242  0.5232
    1DPPC   C3A 3091   1.153  18.279   4.637 -0.1577  0.0546  0.2538
    1DPPC   C4A 3092   1.095  18.120   4.329  0.1604 -0.2970 -0.2326
    1DPPC   C1B 3093   1.682  18.379   5.308  0.0836 -0.2438  0.0942
    1DPPC   C2B 3094   1.677  18.391   4.906  0.0566  0.4275 -0.1186
    1DPPC   C3B 3095   1.649  18.431   4.434 -0.2467 -0.0889 -0.0385
    1DPPC   C4B 3096   1.793  18.652   4.105  0.0822  0.0488 -0.0560
    1DPPC   NC3 3097   7.994  24.911   6.340 -0.2099 -0.1483 -0.0801
    1DPPC   PO4 3098   7.617  25.120   6.284 -0.0136  0.0517 -0.0104
    1DPPC   GL1 3099   7.383  25.268   5.883  0.1617  0.2486 -0.0248
    1DPPC   GL2 3100   7.196  24.910   5.897  0.0118 -0.0437 -0.1009
    1DPPC   C1A 3101   7.349  25.215   5.441 -0.2610  0.0649 -0.2183
    1DPPC   C2A 3102   7.087  25.294   5.089 -0.3844  0.2766 -0.0494
    1DPPC   C3A 3103   6.948  25.247   4.692 -0.4847 -0.2787  0.3397
    1DPPC   C4A 3104   7.018  25.025   4.290  0.0714  0.2394  0.2855
    1DPPC   C1B 3105   6.877  24.980   5.501  0.0553  0.1080  0.3331
    1DPPC   C2B 3106   6.599  25.177   5.232  0.1035 -0.2192  0.0471
    1DPPC   C3B 3107   6.232  25.363   5.121 -0.0167  0.0226  0.0327
    1DPPC   C4B 3108   5.853  25.485   4.912  0.4623  0.0821 -0.0281
    1DPPC   NC3 3109  10.286  15.230   7.389 -0.2318  0.1389  0.0424
    1DPPC   PO4 3110  10.368  14.870   7.059  0.1947 -0.0505  0.0666
    1DPPC   GL1 3111  10.398  14.777   6.616 -0.0721  0.1390 -0.3389
    1DPPC   GL2 3112  10.373  15.074   6.440 -0.2248  0.0162  0.0221
    1DPPC   C1A 3113  10.484  14.589   6.231  0.1191  0.0742 -0.2813
    1DPPC   C2A 3114  10.522  14.372   5.869 -0.0763  0.3203  0.0799
    1DPPC   C3A 3115  10.327  14.137   5.485 -0.0221 -0.0575  0.0119
    1DPPC   C4A 3116  10.193  13.791   5.177  0.0851  0.3808 -0.3886
    1DPPC   C1B 3117  10.382  15.038   5.973 -0.1271 -0.1258  0.1051
    1DPPC   C2B 3118  10.475  14.835   5.720  0.1964  0.1200  0.1226
    1DPPC   C3B 3119  10.302  14.625   5.431  0.0806 -0.3504  0.2124
    1DPPC   C4B 3120   9.974  14.715   5.088  0.2199  0.0125  0.3586
    1DPPC   NC3 3121   6.375  23.376   6.410 -0.0621 -0.0847 -0.2797
    1DPPC   PO4 3122   6.273  23.469   6.077 -0.1033  0.1126  0.1331
    1DPPC   GL1 3123   6.193  23.273   5.749  0.0273  0.0676 -0.2412
    1DPPC   GL2 3124   5.808  23.347   5.696 -0.3008  0.0774 -0.1231
    1DPPC   C1A 3125   6.213  23.414   5.363 -0.2562  0.0319 -0.1997
    1DPPC   C2A 3126   6.286  23.383   4.898 -0.0097 -0.1340  0.2040
    1DPPC   C3A 3127   6.470  23.468   4.521 -0.1900  0.1617 -0.0688
    1DPPC   C4A 3128   6.913  23.646   4.433  0.0069  0.1684 -0.0383
    1DPPC   C1B 3129   5.616  23.293   5.326  0.1103  0.3100 -0.2245
    1DPPC   C2B 3130   5.746  23.466   5.021 -0.0974  0.2487  0.0619
    1DPPC   C3B 3131   5.879  23.494   4.597  0.0741  0.0112  0.1830
    1DPPC   C4B 3132   6.121  23.470   4.212 -0.0903  0.1871  0.1900
    1DPPC   NC3 3133   2.163  22.726   6.936  0.2525 -0.1732 -0.1860
    1DPPC   PO4 3134   1.951  22.393   6.643  0.2568 -0.4332  0.0960
    1DPPC   GL1 3135   1.893  22.334   6.233  0.0227  0.0034 -0.1154
    1DPPC   GL2 3136   1.645  22.123   6.136 -0.1059 -0.2127  0.0354
    1DPPC   C1A 3137   1.841  22.576   5.869  0.1618  0.2070 -0.0610
    1DPPC   C2A 3138   1.852  22.735   5.432 -0.0805  0.0556 -0.1534
    1DPPC   C3A 3139   1.823  22.747   4.957 -0.3538 -0.0040  0.1904
    1DPPC   C4A 3140   2.127  22.664   4.694 -0.1528  0.0063  0.0313
    1DPPC   C1B 3141   1.530  22.141   5.759  0.0394  0.0640  0.1889
    1DPPC   C2B 3142   1.247  22.144   5.364 -0.0454 -0.1127  0.0800
    1DPPC   C3B 3143   1.363  22.159   4.968 -0.1494  0.0695 -0.0740
    1DPPC   C4B 3144   1.417  22.420   4.657  0.1817 -0.0444  0.3324
    1DPPC   NC3 3145   6.338  25.838   6.989  0.3045  0.2357 -0.0469
    1DPPC   PO4 3146   6.454  25.580   6.632 -0.1803  0.1815  0.0310
    1DPPC   GL1 3147   6.203  25.560   6.252  0.1480 -0.0966  0.1091
    1DPPC   GL2 3148   6.389  25.668   5.954 -0.0207 -0.6098  0.0681
    1DPPC   C1A 3149   5.968  25.345   5.970  0.2061 -0.0030 -0.0606
    1DPPC   C2A 3150   5.626  25.313   5.710  0.2638 -0.0562 -0.1958
    1DPPC   C3A 3151   5.365  25.338   5.383  0.2049  0.0338 -0.1844
    1DPPC   C4A 3152   5.391  25.311   4.901  0.0052  0.0372 -0.2485
    1DPPC   C1B 3153   6.766  25.964   5.839 -0.2126 -0.1512 -0.2310
    1DPPC   C2B 3154   6.854  26.257   5.653  0.2408  0.1088 -0.2189
    1DPPC   C3B 3155   6.887  26.647   5.406 -0.0660  0.1454  0.3800
    1DPPC   C4B 3156   7.140  27.041   5.269 -0.0112  0.0463 -0.1224
    1DPPC   NC3 3157   4.586  19.356   6.145  0.0236 -0.3885  0.1392
    1DPPC   PO4 3158   4.219  19.053   6.179 -0.3311  0.2519  0.0046
    1DPPC   GL1 3159   3.983  18.798   5.723  0.2188  0.0709  0.0581
    1DPPC   GL2 3160   4.294  18.715   5.539 -0.1232  0.0758  0.0134
    1DPPC   C1A 3161   3.948  18.753   5.245  0.2103  0.4158  0.2058
    1DPPC   C2A 3162   3.948  18.505   4.957  0.0640 -0.1208  0.1031
    1DPPC   C3A 3163   3.773  18.478   4.674 -0.0018 -0.1114  0.0461
    1DPPC   C4A 3164   3.813  18.435   4.237 -0.2561  0.1934 -0.4894
    1DPPC   C1B 3165   4.290  18.339   5.283  0.0171  0.2518 -0.0048
    1DPPC   C2B 3166   4.351  18.288   4.889 -0.0191 -0.1750  0.1070
    1DPPC   C3B 3167   4.169  18.209   4.514 -0.0892  0.0266  0.1468
    1DPPC   C4B 3168   3.962  17.971   4.175  0.0223 -0.2495 -0.3249
    1DPPC   NC3 3169  28.642  13.053   6.926  0.0624 -0.2576  0.3635
    1DPPC   PO4 3170  28.267  13.164   6.630 -0.2551 -0.1827  0.0509
    1DPPC   GL1 3171  28.096  13.227   6.152  0.0576  0.3110 -0.2968
    1DPPC   GL2 3172  27.753  13.059   6.110 -0.1000  0.0718 -0.3797
    1DPPC   C1A 3173  28.168  13.194   5.652 -0.3730 -0.1606  0.1665
    1DPPC   C2A 3174  28.175  13.108   5.289 -0.0457  0.1533 -0.2197
    1DPPC   C3A 3175  28.029  13.018   4.902  0.0563 -0.1552  0.0343
    1DPPC   C4A 3176  28.073  13.316   4.512  0.1662  0.1076 -0.4024
    1DPPC   C1B 3177  27.859  12.808   5.718 -0.0783  0.1440  0.1936
    1DPPC   C2B 3178  27.891  12.691   5.279  0.0802 -0.0311  0.0401
    1DPPC   C3B 3179  27.851  12.536   4.857  0.2403  0.0964  0.0481
    1DPPC   C4B 3180  27.915  12.701   4.440 -0.1566 -0.1305 -0.2030
    1DPPC   NC3 3181   0.500  14.903   6.663 -0.0566 -0.1719  0.1059
    1DPPC   PO4 3182   0.291  14.482   6.670  0.0380  0.0755  0.0521
    1DPPC   GL1 3183   0.146  14.589   6.314 -0.0914 -0.0125  0.0689
    1DPPC   GL2 3184   0.028  14.277   6.288  0.1633 -0.4290  0.2227
    1DPPC   C1A 3185   0.176  14.640   5.897 -0.2409 -0.0373 -0.1240
    1DPPC   C2A 3186   0.222  14.721   5.481  0.0852  0.1332  0.1962
    1DPPC   C3A 3187   0.222  14.733   5.043  0.2912 -0.3289  0.1605
    1DPPC   C4A 3188   0.096  14.518   4.732 -0.2323  0.1663  0.0764
    1DPPC   C1B 3189  30.257  14.025   5.895 -0.2092 -0.0663  0.1014
    1DPPC   C2B 3190  30.178  13.959   5.493 -0.0620  0.0088  0.3004
    1DPPC   C3B 3191  30.170  13.852   5.085 -0.0247  0.0759  0.1642
    1DPPC   C4B 3192  30.315  13.833   4.700  0.1340  0.2428  0.0994
    1DPPC   NC3 3193   5.281  17.710   6.153 -0.1854 -0.0570  0.0832
    1DPPC   PO4 3194   5.012  18.052   6.041 -0.0199  0.2594  0.0453
    1DPPC   GL1 3195   5.324  18.178   5.652 -0.0483  0.0274  0.3174
    1DPPC   GL2 3196   5.209  18.464   5.417  0.1578 -0.3001  0.0606
    1DPPC   C1A 3197   5.308  17.957   5.307 -0.2401 -0.1390 -0.0221
    1DPPC   C2A 3198   5.273  17.832   4.846 -0.1338  0.0270  0.0017
    1DPPC   C3A 3199   5.279  17.717   4.374  0.0531  0.1870 -0.1009
    1DPPC   C4A 3200   5.009  17.680   4.215 -0.0791  0.0595  0.1553
    1DPPC   C1B 3201   5.149  18.374   4.947  0.1487 -0.1723  0.0986
    1DPPC   C2B 3202   5.270  18.226   4.565  0.0884 -0.1062 -0.1361
    1DPPC   C3B 3203   5.412  18.204   4.221  0.0682 -0.1308  0.4362
    1DPPC   C4B 3204   5.426  17.949   3.765 -0.4190  0.1109 -0.0918
    1DPPC   NC3 3205   9.228  15.483   6.470  0.1335 -0.0303 -0.1224
    1DPPC   PO4 3206   8.814  15.232   6.416  0.1180  0.3169  0.2807
    1DPPC   GL1 3207   8.850  15.163   6.096 -0.0975  0.3568 -0.1994
    1DPPC   GL2 3208   9.177  15.155   6.064  0.2189 -0.2208  0.0900
    1DPPC   C1A 3209   8.898  14.996   5.637  0.2833  0.1378  0.3755
    1DPPC   C2A 3210   8.974  15.139   5.172  0.1770  0.1437  0.3480
    1DPPC   C3A 3211   8.996  14.929   4.717 -0.2570 -0.1047  0.2801
    1DPPC   C4A 3212   9.428  14.934   4.604  0.1108 -0.1627  0.3845
    1DPPC   C1B 3213   9.297  15.216   5.624 -0.1835 -0.0277  0.1573
    1DPPC   C2B 3214   9.467  15.171   5.272  0.0484 -0.3497 -0.3254
    1DPPC   C3B 3215   9.773  15.160   5.048 -0.2059 -0.0419  0.1260
    1DPPC   C4B 3216   9.786  15.585   4.744  0.0978  0.0470  0.0697
    1DPPC   NC3 3217   4.811  20.821   5.978 -0.0032 -0.0792 -0.1007
    1DPPC   PO4 3218   4.309  20.941   5.972  0.2448  0.0085 -0.1418
    1DPPC   GL1 3219   4.540  21.031   5.601 -0.0645  0.0369  0.3184
    1DPPC   GL2 3220   4.715  20.696   5.473 -0.0196 -0.1118 -0.0448
    1DPPC   C1A 3221   4.663  21.212   5.068 -0.1647  0.2992  0.1469
    1DPPC   C2A 3222   4.512  21.271   4.697 -0.2813 -0.1242 -0.1367
    1DPPC   C3A 3223   4.416  21.342   4.238  0.1963 -0.1740 -0.1050
    1DPPC   C4A 3224   4.294  21.237   3.921 -0.1656  0.2518 -0.2095
    1DPPC   C1B 3225   4.690  20.731   4.989  0.1931 -0.0765 -0.3603
    1DPPC   C2B 3226   4.680  20.682   4.578 -0.3400  0.1681  0.1674
    1DPPC   C3B 3227   4.764  20.928   4.272  0.0601 -0.4355 -0.0921
    1DPPC   C4B 3228   4.765  21.101   3.803  0.0981  0.4324 -0.0564
    1DPPC   NC3 3229   9.672  17.253   6.658  0.2658 -0.1564  0.0266
    1DPPC   PO4 3230   9.905  16.988   6.346  0.1802 -0.2169  0.1460
    1DPPC   GL1 3231   9.886  16.808   5.890 -0.2450  0.1197 -0.0660
    1DPPC   GL2 3232   9.584  16.874   5.787 -0.1766  0.0575  0.2115
    1DPPC   C1A 3233   9.975  16.580   5.545  0.0423  0.2312 -0.2501
    1DPPC   C2A 3234   9.971  16.250   5.290 -0.0101  0.3216  0.0794
    1DPPC   C3A 3235  10.316  16.166   5.111 -0.1022  0.0549 -0.2552
    1DPPC   C4A 3236  10.169  15.872   4.814 -0.0956 -0.1731  0.0542
    1DPPC   C1B 3237   9.390  16.846   5.374  0.0158  0.1840 -0.1365
    1DPPC   C2B 3238   9.215  16.791   4.980 -0.1628  0.1504  0.1968
    1DPPC   C3B 3239   9.069  16.823   4.608 -0.2267 -0.0493 -0.1401
    1DPPC   C4B 3240   9.063  17.079   4.161  0.2913  0.3750 -0.1794
    1DPPC   NC3 3241  30.180  17.911   6.491  0.1830 -0.1410  0.3063
    1DPPC   PO4 3242   0.129  17.620   6.258  0.1086 -0.0571 -0.0934
    1DPPC   GL1 3243   0.449  17.781   5.866  0.3583 -0.2081  0.1144
    1DPPC   GL2 3244   0.786  17.750   6.020 -0.0676  0.1005  0.1104
    1DPPC   C1A 3245   0.436  17.838   5.425  0.0267 -0.0089  0.3323
    1DPPC   C2A 3246   0.402  17.856   4.921 -0.0266  0.1075 -0.0105
    1DPPC   C3A 3247   0.488  17.759   4.549  0.0228 -0.0174 -0.0559
    1DPPC   C4A 3248   0.305  17.623   4.167  0.1211  0.0239  0.0772
    1DPPC   C1B 3249   0.956  17.756   5.646 -0.4167 -0.1013  0.0563
    1DPPC   C2B 3250   0.905  17.721   5.140  0.2437  0.0343 -0.2430
    1DPPC   C3B 3251   0.929  17.768   4.712 -0.1561 -0.1113 -0.1526
    1DPPC   C4B 3252   1.180  17.607   4.394 -0.1165 -0.0503  0.0333
    1DPPC   NC3 3253  26.630  21.077   6.834  0.0789  0.2016  0.1990
    1DPPC   PO4 3254  26.928  21.218   6.469 -0.0321 -0.0173  0.1167
    1DPPC   GL1 3255  26.905  21.055   6.100  0.3072  0.2865 -0.0418
    1DPPC   GL2 3256  26.546  21.053   5.906 -0.0728  0.2013  0.1187
    1DPPC   C1A 3257  26.936  21.002   5.644 -0.2981  0.0147 -0.0494
    1DPPC   C2A 3258  27.005  21.028   5.145  0.0586  0.0593 -0.0330
    1DPPC   C3A 3259  26.824  21.107   4.763  0.1522 -0.0397 -0.1107
    1DPPC   C4A 3260  26.950  21.020   4.358 -0.0162 -0.2102 -0.0108
    1DPPC   C1B 3261  26.265  21.111   5.532  0.0154  0.2377  0.1427
    1DPPC   C2B 3262  26.180  21.105   5.132  0.1651  0.3535  0.2941
    1DPPC   C3B 3263  26.170  21.219   4.743 -0.0268 -0.1559  0.2182
    1DPPC   C4B 3264  26.398  21.374   4.470 -0.2353 -0.1467 -0.2374
    1DPPC   NC3 3265   2.549  14.324   6.843 -0.0897 -0.0352 -0.0375
    1DPPC   PO4 3266   2.460  13.997   6.639  0.2694 -0.3012  0.0201
    1DPPC   GL1 3267   2.253  13.729   6.236  0.0564 -0.1253  0.3658
    1DPPC   GL2 3268   1.871  13.737   6.153 -0.1641 -0.1990 -0.0781
    1DPPC   C1A 3269   2.316  13.780   5.706 -0.0757  0.0095  0.3255
    1DPPC   C2A 3270   2.241  13.705   5.223  0.0328  0.1107  0.1335
    1DPPC   C3A 3271   2.339  13.816   4.765 -0.1657  0.1508  0.0276
    1DPPC   C4A 3272   2.384  13.621   4.431 -0.0489 -0.1169 -0.2095
    1DPPC   C1B 3273   1.825  13.704   5.660  0.1371 -0.1424  0.1809
    1DPPC   C2B 3274   1.725  13.720   5.230  0.1655  0.0725 -0.1138
    1DPPC   C3B 3275   1.817  13.668   4.807 -0.1146 -0.1111 -0.0643
    1DPPC   C4B 3276   1.876  13.711   4.456  0.0175  0.1730  0.0519
    1DPPC   NC3 3277   6.998  23.080   6.357  0.1707  0.3388  0.0633
    1DPPC   PO4 3278   6.880  23.405   6.142 -0.0788  0.1544 -0.4578
    1DPPC   GL1 3279   6.778  23.445   5.693 -0.0761  0.0658 -0.1941
    1DPPC   GL2 3280   7.052  23.223   5.483  0.0465 -0.4160 -0.3168
    1DPPC   C1A 3281   6.686  23.510   5.220  0.0155  0.0113 -0.2904
    1DPPC   C2A 3282   6.897  23.330   4.906 -0.0024 -0.1996 -0.0531
    1DPPC   C3A 3283   6.858  23.109   4.496  0.3467 -0.0825 -0.0256
    1DPPC   C4A 3284   7.168  23.049   4.194  0.2974  0.2867  0.1166
    1DPPC   C1B 3285   7.318  23.384   5.149  0.3557  0.0130 -0.1950
    1DPPC   C2B 3286   7.472  23.574   4.700 -0.1634  0.0771 -0.0974
    1DPPC   C3B 3287   7.460  23.965   4.452 -0.1111 -0.0713 -0.2288
    1DPPC   C4B 3288   7.496  24.333   4.318  0.1551 -0.3438  0.1214
    1DPPC   NC3 3289  22.148  14.886   6.347  0.1554  0.1189 -0.0526
    1DPPC   PO4 3290  21.794  15.107   6.229 -0.0905 -0.0857  0.0698
    1DPPC   GL1 3291  21.892  14.965   5.794 -0.1470  0.0416 -0.0332
    1DPPC   GL2 3292  22.067  14.621   5.783 -0.2556 -0.0759 -0.1767
    1DPPC   C1A 3293  21.583  15.118   5.507  0.1865  0.0932 -0.2621
    1DPPC   C2A 3294  21.369  15.053   5.087  0.2963  0.1518  0.3006
    1DPPC   C3A 3295  21.127  14.837   4.789 -0.0654  0.0936 -0.5440
    1DPPC   C4A 3296  20.884  14.834   4.423 -0.0549  0.1219 -0.2750
    1DPPC   C1B 3297  21.637  14.614   5.532  0.3433  0.2073 -0.0037
    1DPPC   C2B 3298  21.401  14.525   5.175  0.0584 -0.1291 -0.2569
    1DPPC   C3B 3299  21.136  14.303   4.862 -0.0261  0.1732  0.0884
    1DPPC   C4B 3300  20.867  14.335   4.470  0.0651  0.0621  0.2399
    1DPPC   NC3 3301   3.961  20.539   6.018  0.0595 -0.1077  0.1499
    1DPPC   PO4 3302   3.653  20.680   6.282  0.1049  0.0203 -0.0780
    1DPPC   GL1 3303   3.522  20.461   5.855  0.1491 -0.1116  0.1026
    1DPPC   GL2 3304   3.536  20.105   5.875  0.3613 -0.0570 -0.3246
    1DPPC   C1A 3305   3.429  20.437   5.430 -0.0447  0.2078 -0.0806
    1DPPC   C2A 3306   3.486  20.489   4.976  0.1091  0.0559 -0.3473
    1DPPC   C3A 3307   3.328  20.642   4.606  0.1983  0.3886  0.0607
    1DPPC   C4A 3308   3.209  20.675   4.249  0.0433 -0.2504 -0.0500
    1DPPC   C1B 3309   3.404  19.959   5.427 -0.0804  0.0577  0.1169
    1DPPC   C2B 3310   3.362  19.958   5.037  0.1814 -0.1233 -0.0842
    1DPPC   C3B 3311   3.424  19.992   4.736  0.1929 -0.2766  0.0006
    1DPPC   C4B 3312   3.337  20.129   4.415  0.2645  0.2919  0.0410
    1DPPC   NC3 3313  26.727  17.877   6.412  0.0901 -0.1111  0.0080
    1DPPC   PO4 3314  26.985  17.525   6.243 -0.0198  0.0096  0.1434
    1DPPC   GL1 3315  27.231  17.462   5.869 -0.0455 -0.0981 -0.4287
    1DPPC   GL2 3316  27.540  17.179   5.952 -0.1495 -0.0685  0.2100
    1DPPC   C1A 3317  27.176  17.393   5.440  0.2491  0.2563 -0.1502
    1DPPC   C2A 3318  27.287  17.274   4.997 -0.2246 -0.1369 -0.1943
    1DPPC   C3A 3319  27.410  17.394   4.633  0.4348 -0.4724  0.0408
    1DPPC   C4A 3320  27.684  17.593   4.355 -0.0340  0.0905  0.1281
    1DPPC   C1B 3321  27.622  17.229   5.579 -0.2091 -0.1280 -0.0731
    1DPPC   C2B 3322  27.749  17.321   5.183  0.3706  0.1016  0.0796
    1DPPC   C3B 3323  27.920  17.570   4.834 -0.0185  0.1147 -0.2432
    1DPPC   C4B 3324  28.233  17.623   4.446  0.3293 -0.2122 -0.0671
    1DPPC   NC3 3325  30.017  21.294   6.520  0.0226 -0.2414  0.1211
    1DPPC   PO4 3326  29.812  20.985   6.509 -0.1003  0.1634 -0.2190
    1DPPC   GL1 3327  29.700  21.086   6.114 -0.2727 -0.0032  0.0942
    1DPPC   GL2 3328  29.760  21.410   6.095  0.1228 -0.1110  0.2282
    1DPPC   C1A 3329  29.618  20.959   5.699  0.2181  0.2132 -0.1814
    1DPPC   C2A 3330  29.619  20.973   5.222  0.0911 -0.0217 -0.1366
    1DPPC   C3A 3331  29.710  20.966   4.732  0.1637 -0.1942  0.1939
    1DPPC   C4A 3332  29.667  20.793   4.245 -0.0242 -0.0866 -0.0078
    1DPPC   C1B 3333  29.688  21.473   5.658  0.1119  0.2209  0.1273
    1DPPC   C2B 3334  29.636  21.475   5.341  0.2019  0.1965 -0.0739
    1DPPC   C3B 3335  29.748  21.441   4.859 -0.1360 -0.0620 -0.1406
    1DPPC   C4B 3336  29.893  21.308   4.438 -0.0938 -0.1364 -0.0792
    1DPPC   NC3 3337   8.678  13.036   7.219 -0.0616 -0.1226  0.0630
    1DPPC   PO4 3338   8.827  13.441   7.170 -0.2604 -0.0884 -0.0189
    1DPPC   GL1 3339   8.862  13.345   6.774  0.2786  0.0385 -0.2666
    1DPPC   GL2 3340   9.191  13.402   6.578  0.2265 -0.1608  0.2296
    1DPPC   C1A 3341   8.830  13.170   6.316  0.2749 -0.2367  0.1536
    1DPPC   C2A 3342   8.909  13.058   5.856  0.1738  0.0204 -0.1357
    1DPPC   C3A 3343   8.927  12.878   5.465 -0.0756 -0.1049  0.0044
    1DPPC   C4A 3344   9.088  12.524   5.250 -0.3262  0.3828 -0.1188
    1DPPC   C1B 3345   9.311  13.213   6.079  0.1046 -0.1001 -0.1101
    1DPPC   C2B 3346   9.388  13.180   5.615 -0.2479 -0.1133  0.2251
    1DPPC   C3B 3347   9.342  13.120   5.218 -0.0209 -0.2019 -0.4513
    1DPPC   C4B 3348   9.125  13.369   5.003  0.0372  0.3451  0.0320
    1DPPC   NC3 3349   6.496   8.559   6.391 -0.3060 -0.1806 -0.1469
    1DPPC   PO4 3350   6.578   9.035   6.361  0.0328  0.2083  0.1823
    1DPPC   GL1 3351   6.476   8.904   5.937  0.1856 -0.0736  0.0842
    1DPPC   GL2 3352   6.231   9.172   6.000  0.3730  0.1370  0.2941
    1DPPC   C1A 3353   6.568   8.782   5.565 -0.0718 -0.1601  0.1504
    1DPPC   C2A 3354   6.714   8.700   5.082  0.1679  0.3151 -0.3711
    1DPPC   C3A 3355   6.903   8.730   4.621 -0.0961 -0.0400 -0.1346
    1DPPC   C4A 3356   7.113   8.722   4.246  0.1793  0.2470 -0.0038
    1DPPC   C1B 3357   6.146   9.103   5.506 -0.1987 -0.2086 -0.1492
    1DPPC   C2B 3358   6.179   9.113   5.084  0.1793 -0.1681 -0.0622
    1DPPC   C3B 3359   5.953   9.181   4.651  0.0812  0.1564  0.1016
    1DPPC   C4B 3360   5.497   9.185   4.446 -0.2673 -0.1380  0.0632
    1DPPC   NC3 3361   8.440  15.604   6.388  0.1842  0.3455  0.1106
    1DPPC   PO4 3362   8.215  15.779   6.223  0.4404 -0.4060 -0.1030
    1DPPC   GL1 3363   8.101  15.866   5.795  0.3506 -0.2212  0.0970
    1DPPC   GL2 3364   7.697  15.802   5.778 -0.1964  0.0963  0.1943
    1DPPC   C1A 3365   8.007  15.730   5.393 -0.0813  0.0581 -0.3651
    1DPPC   C2A 3366   7.898  15.661   5.042  0.1772  0.0627  0.3430
    1DPPC   C3A 3367   7.789  15.801   4.613 -0.2014  0.1745 -0.2189
    1DPPC   C4A 3368   7.765  15.574   4.172 -0.1170 -0.0033  0.0070
    1DPPC   C1B 3369   7.485  15.766   5.412  0.1169  0.3459  0.1155
    1DPPC   C2B 3370   7.334  15.660   5.147 -0.1925 -0.1031 -0.0887
    1DPPC   C3B 3371   7.310  15.496   4.694 -0.1559  0.2613  0.0933
    1DPPC   C4B 3372   6.834  15.367   4.503 -0.1113 -0.0973 -0.1370
    1DPPC   NC3 3373  23.394  29.247   6.901  0.2249  0.0322 -0.0176
    1DPPC   PO4 3374  23.378  29.634   7.052 -0.3842  0.0919 -0.0080
    1DPPC   GL1 3375  23.459  29.639   6.546 -0.1602  0.0050 -0.0282
    1DPPC   GL2 3376  23.266  29.489   6.459  0.1339 -0.3548  0.3180
    1DPPC   C1A 3377  23.585  29.736   6.084  0.4116  0.0894 -0.2429
    1DPPC   C2A 3378  23.573  29.539   5.778  0.2508  0.1765  0.1653
    1DPPC   C3A 3379  23.807  29.259   5.514  0.1600  0.1356 -0.0868
    1DPPC   C4A 3380  24.200  29.116   5.303  0.0713  0.2401  0.1242
    1DPPC   C1B 3381  23.142  29.501   6.008  0.3090 -0.3421  0.1422
    1DPPC   C2B 3382  23.058  29.709   5.743  0.1882  0.1886 -0.0088
    1DPPC   C3B 3383  23.144  29.812   5.315  0.4240  0.1682  0.1232
    1DPPC   C4B 3384  23.382  29.922   4.965  0.3381 -0.2129  0.0933
    1DPPC   NC3 3385   6.989  27.379   6.535  0.1344 -0.2998 -0.2562
    1DPPC   PO4 3386   6.784  26.924   6.637  0.0407  0.0384 -0.0140
    1DPPC   GL1 3387   7.011  26.892   6.257 -0.0578  0.0916 -0.1887
    1DPPC   GL2 3388   7.111  27.225   6.102  0.1052  0.1569 -0.1793
    1DPPC   C1A 3389   7.126  26.799   5.834 -0.3702  0.1510 -0.1191
    1DPPC   C2A 3390   7.368  26.722   5.550 -0.1292 -0.1082  0.0712
    1DPPC   C3A 3391   7.822  26.952   5.552  0.0817 -0.2723  0.2012
    1DPPC   C4A 3392   8.186  26.882   5.165 -0.2395 -0.2082  0.0685
    1DPPC   C1B 3393   6.970  27.512   5.808  0.0231  0.2433 -0.0339
    1DPPC   C2B 3394   6.965  27.467   5.365  0.0926  0.0387 -0.2418
    1DPPC   C3B 3395   7.147  27.585   5.011  0.1950  0.1163 -0.0924
    1DPPC   C4B 3396   7.207  27.884   4.739  0.1014 -0.1497 -0.0383
    1DPPC   NC3 3397   2.690  17.577   6.266 -0.0650  0.0652 -0.2802
    1DPPC   PO4 3398   2.391  17.796   6.098  0.1021  0.0174 -0.0040
    1DPPC   GL1 3399   2.511  17.635   5.755  0.1680  0.1194  0.1872
    1DPPC   GL2 3400   2.347  17.476   5.554  0.3048 -0.3530  0.1486
    1DPPC   C1A 3401   2.814  17.739   5.429  0.0577 -0.1157  0.3823
    1DPPC   C2A 3402   2.858  17.635   5.025  0.0663 -0.1344  0.0467
    1DPPC   C3A 3403   2.911  17.510   4.622 -0.0825  0.2696  0.2353
    1DPPC   C4A 3404   3.104  17.343   4.279  0.1636  0.0416  0.1976
    1DPPC   C1B 3405   2.362  17.556   5.195 -0.1214  0.2681  0.0137
    1DPPC   C2B 3406   2.389  17.545   4.807  0.0987  0.1164 -0.0354
    1DPPC   C3B 3407   2.283  17.504   4.291  0.1569  0.1395  0.3518
    1DPPC   C4B 3408   2.395  17.747   3.993 -0.0363  0.0879 -0.0531
    1DPPC   NC3 3409  27.160  12.247   6.575 -0.1841 -0.0213  0.0770
    1DPPC   PO4 3410  27.423  12.614   6.586 -0.0402  0.0182  0.1992
    1DPPC   GL1 3411  27.517  12.569   6.182  0.1519 -0.2922  0.1563
    1DPPC   GL2 3412  27.606  12.210   6.241 -0.4410 -0.1097 -0.2691
    1DPPC   C1A 3413  27.372  12.659   5.726 -0.0019  0.1079 -0.0541
    1DPPC   C2A 3414  27.368  12.751   5.308 -0.0886 -0.0928  0.1436
    1DPPC   C3A 3415  27.298  12.759   4.888 -0.0514 -0.1735  0.0469
    1DPPC   C4A 3416  27.032  12.874   4.557 -0.0178 -0.2730 -0.4695
    1DPPC   C1B 3417  27.819  12.309   5.836  0.2393 -0.0800  0.0009
    1DPPC   C2B 3418  27.960  12.114   5.395 -0.0260 -0.0825  0.0206
    1DPPC   C3B 3419  27.932  12.041   5.004 -0.0651 -0.1673 -0.0981
    1DPPC   C4B 3420  27.710  11.822   4.698 -0.2252 -0.1164  0.0464
    1DPPC   NC3 3421   3.248   6.209   6.683 -0.1129 -0.1044 -0.0242
    1DPPC   PO4 3422   3.353   6.583   6.546 -0.1660 -0.1046  0.2654
    1DPPC   GL1 3423   3.607   6.860   6.168  0.1367 -0.1772  0.1665
    1DPPC   GL2 3424   3.285   6.844   6.095  0.0062 -0.0062  0.0256
    1DPPC   C1A 3425   3.675   6.890   5.732 -0.0525 -0.0002 -0.1343
    1DPPC   C2A 3426   3.572   7.045   5.415  0.1853 -0.1010  0.0469
    1DPPC   C3A 3427   3.746   6.919   4.976  0.1054  0.1072  0.4120
    1DPPC   C4A 3428   4.020   6.908   4.562 -0.0349  0.1676  0.4281
    1DPPC   C1B 3429   3.176   6.771   5.585 -0.1477  0.2138 -0.2112
    1DPPC   C2B 3430   2.973   6.876   5.153 -0.0208  0.0736 -0.0044
    1DPPC   C3B 3431   2.850   7.116   4.847  0.0188 -0.0698  0.0814
    1DPPC   C4B 3432   3.024   7.467   4.560 -0.1732  0.0948 -0.0903
    1DPPC   NC3 3433   3.787  10.538   6.470 -0.0058  0.2429  0.0886
    1DPPC   PO4 3434   4.039  10.858   6.091 -0.0529  0.0197 -0.4494
    1DPPC   GL1 3435   4.076  10.655   5.656 -0.4638 -0.1310  0.1747
    1DPPC   GL2 3436   4.232  10.301   5.675 -0.1611 -0.2795  0.1508
    1DPPC   C1A 3437   3.819  10.228   5.363  0.2076 -0.0824  0.2744
    1DPPC   C2A 3438   3.636  10.186   5.012 -0.2692 -0.0656  0.0236
    1DPPC   C3A 3439   3.691  10.471   4.698 -0.1434  0.2150 -0.2347
    1DPPC   C4A 3440   3.703  10.952   4.740  0.1989  0.2317 -0.4385
    1DPPC   C1B 3441   4.331  10.213   5.297  0.2278 -0.0272 -0.2465
    1DPPC   C2B 3442   4.399  10.115   4.853 -0.1190  0.0140 -0.0608
    1DPPC   C3B 3443   4.376  10.146   4.400 -0.0640 -0.1374 -0.0202
    1DPPC   C4B 3444   4.675  10.336   4.028 -0.1821  0.2948  0.2437
    1DPPC   NC3 3445   9.750   2.669   6.520 -0.0413  0.1816 -0.0209
    1DPPC   PO4 3446   9.416   2.930   6.574 -0.0758 -0.0091 -0.1666
    1DPPC   GL1 3447   9.581   2.973   6.169  0.0953 -0.1651  0.2684
    1DPPC   GL2 3448   9.805   3.138   6.193 -0.4200  0.1418  0.3728
    1DPPC   C1A 3449   9.456   3.056   5.761 -0.0914 -0.1948  0.1950
    1DPPC   C2A 3450   9.663   2.961   5.331  0.0588 -0.1045  0.1100
    1DPPC   C3A 3451   9.673   2.806   4.888 -0.0315 -0.0164 -0.1373
    1DPPC   C4A 3452   9.661   2.809   4.468  0.1978  0.1531 -0.0674
    1DPPC   C1B 3453   9.967   3.267   5.813  0.0884  0.2256  0.3782
    1DPPC   C2B 3454   9.807   3.389   5.470  0.1936  0.0497  0.0564
    1DPPC   C3B 3455   9.649   3.405   5.103 -0.1958  0.1640 -0.1419
    1DPPC   C4B 3456   9.651   3.256   4.738 -0.0419  0.1904 -0.1497
    1DPPC   NC3 3457   9.096  26.496   6.302  0.2771  0.0632  0.3629
    1DPPC   PO4 3458   8.881  26.133   6.152  0.3842  0.0124  0.0615
    1DPPC   GL1 3459   8.587  26.106   5.870  0.1892  0.2175 -0.0019
    1DPPC   GL2 3460   8.327  26.078   6.099 -0.2480 -0.0710  0.1047
    1DPPC   C1A 3461   8.493  25.937   5.391  0.0476  0.0541 -0.1246
    1DPPC   C2A 3462   8.374  25.760   5.000  0.0602 -0.2412  0.1378
    1DPPC   C3A 3463   7.942  25.524   4.899  0.1269  0.0372  0.0960
    1DPPC   C4A 3464   7.595  25.132   4.959  0.1054  0.1625 -0.1005
    1DPPC   C1B 3465   8.312  26.352   5.617  0.2130 -0.1243 -0.0892
    1DPPC   C2B 3466   8.001  26.472   5.348 -0.0741 -0.0484 -0.0546
    1DPPC   C3B 3467   7.665  26.547   5.219 -0.1029 -0.0039 -0.0262
    1DPPC   C4B 3468   7.362  26.607   5.099  0.1377  0.0591 -0.2972
    1DPPC   NC3 3469   5.680  20.844   5.965  0.1656  0.1784 -0.1068
    1DPPC   PO4 3470   5.462  21.221   5.913 -0.1575  0.0352 -0.2463
    1DPPC   GL1 3471   5.636  21.186   5.571  0.1052 -0.0036 -0.1388
    1DPPC   GL2 3472   5.723  20.948   5.396  0.1436  0.1087  0.0262
    1DPPC   C1A 3473   5.510  21.321   5.160 -0.1110  0.0756 -0.0328
    1DPPC   C2A 3474   5.516  21.319   4.759 -0.3449 -0.0757  0.1706
    1DPPC   C3A 3475   5.504  21.458   4.328 -0.1622 -0.2286  0.0036
    1DPPC   C4A 3476   5.488  21.359   3.877  0.1056 -0.1025  0.1612
    1DPPC   C1B 3477   5.746  20.924   4.910 -0.1314  0.0094 -0.0170
    1DPPC   C2B 3478   5.840  21.024   4.495 -0.0417 -0.0062 -0.3934
    1DPPC   C3B 3479   5.735  20.927   4.104 -0.0374 -0.0905 -0.2161
    1DPPC   C4B 3480   5.624  20.798   3.700 -0.1290  0.1705  0.1632
    1DPPC   NC3 3481   0.991  23.644   7.089 -0.0669  0.2634 -0.0105
    1DPPC   PO4 3482   1.063  23.084   7.167  0.2181 -0.1445  0.4900
    1DPPC   GL1 3483   1.122  23.204   6.766  0.0630  0.1501 -0.3861
    1DPPC   GL2 3484   1.185  23.003   6.563 -0.2679 -0.0947  0.0797
    1DPPC   C1A 3485   0.941  23.504   6.399 -0.1350  0.0524 -0.0655
    1DPPC   C2A 3486   0.985  23.477   5.981 -0.0632  0.2382  0.0891
    1DPPC   C3A 3487   1.005  23.643   5.602  0.2149 -0.1889 -0.2650
    1DPPC   C4A 3488   1.033  23.558   5.184 -0.1524  0.0536 -0.1161
    1DPPC   C1B 3489   1.147  23.042   6.185 -0.1394  0.0447  0.2508
    1DPPC   C2B 3490   1.042  22.993   5.713  0.0599  0.0234  0.0676
    1DPPC   C3B 3491   0.924  23.014   5.251 -0.2799  0.2708  0.0535
    1DPPC   C4B 3492   0.769  23.006   4.764  0.0792  0.0084  0.2336
    1DPPC   NC3 3493  29.353   8.388   6.683 -0.0222 -0.1502 -0.1436
    1DPPC   PO4 3494  29.272   7.864   6.650 -0.1852 -0.1291  0.1590
    1DPPC   GL1 3495  29.437   7.821   6.330  0.2730  0.2817 -0.0331
    1DPPC   GL2 3496  29.575   8.072   6.161  0.1420 -0.0134 -0.1064
    1DPPC   C1A 3497  29.342   7.724   5.855 -0.1693  0.3060  0.0083
    1DPPC   C2A 3498  29.463   7.846   5.390 -0.3983  0.2670 -0.0308
    1DPPC   C3A 3499  29.592   8.119   5.167  0.0344  0.2286  0.1811
    1DPPC   C4A 3500  29.683   8.150   4.736  0.0501 -0.4452  0.0210
    1DPPC   C1B 3501  29.476   8.329   5.799  0.0730  0.1149  0.0339
    1DPPC   C2B 3502  29.486   8.590   5.418  0.1371  0.1562 -0.1249
    1DPPC   C3B 3503  29.712   8.584   5.031 -0.0056  0.1258 -0.0123
    1DPPC   C4B 3504  30.159   8.856   5.019  0.1328 -0.0878 -0.1379
    1DPPC   NC3 3505   6.837  15.985   6.702  0.0414  0.0603  0.1896
    1DPPC   PO4 3506   6.933  15.721   6.377 -0.2786  0.0320  0.0940
    1DPPC   GL1 3507   6.741  15.727   5.956  0.1758 -0.1246  0.0412
    1DPPC   GL2 3508   6.967  15.780   5.712  0.0074 -0.2392  0.1844
    1DPPC   C1A 3509   6.618  15.267   5.793 -0.1260  0.0530 -0.1723
    1DPPC   C2A 3510   6.495  15.195   5.433  0.0350  0.2577  0.0022
    1DPPC   C3A 3511   6.521  15.298   4.898 -0.1004  0.2044 -0.1165
    1DPPC   C4A 3512   6.652  14.912   4.471 -0.1497  0.1195 -0.0810
    1DPPC   C1B 3513   6.921  15.445   5.442  0.4279 -0.2176 -0.1237
    1DPPC   C2B 3514   7.022  15.245   5.061  0.0823  0.0855  0.0661
    1DPPC   C3B 3515   7.075  14.896   4.847  0.5760 -0.4806  0.3898
    1DPPC   C4B 3516   7.025  14.493   4.836 -0.3100  0.0463  0.2577
    1DPPC   NC3 3517   3.887  16.972   6.601  0.0854  0.1890 -0.1177
    1DPPC   PO4 3518   3.561  17.229   6.500 -0.0682  0.3425 -0.0039
    1DPPC   GL1 3519   3.361  17.295   6.078  0.1106  0.1088 -0.1099
    1DPPC   GL2 3520   3.221  17.004   5.927  0.2622  0.0556  0.0743
    1DPPC   C1A 3521   3.499  17.390   5.625 -0.1474 -0.0238  0.0044
    1DPPC   C2A 3522   3.423  17.317   5.132  0.0485 -0.0386 -0.0552
    1DPPC   C3A 3523   3.162  17.133   4.835 -0.3607  0.0759  0.0693
    1DPPC   C4A 3524   3.032  16.851   4.496  0.1452 -0.0272  0.0189
    1DPPC   C1B 3525   3.184  16.796   5.522  0.4523  0.1058  0.1312
    1DPPC   C2B 3526   3.186  16.754   5.113 -0.1113  0.0988 -0.1236
    1DPPC   C3B 3527   3.347  16.544   4.754  0.2693  0.2254 -0.1684
    1DPPC   C4B 3528   3.704  16.592   4.442  0.5140 -0.1247  0.3674
    1DPPC   NC3 3529   6.599  21.825   6.377 -0.2118 -0.3097 -0.1135
    1DPPC   PO4 3530   6.964  22.047   6.161  0.1820 -0.2525 -0.0400
    1DPPC   GL1 3531   6.841  21.973   5.701  0.0419  0.1726  0.1716
    1DPPC   GL2 3532   6.577  21.941   5.472  0.1595  0.2354  0.2414
    1DPPC   C1A 3533   6.892  22.298   5.399  0.1687 -0.1218 -0.1181
    1DPPC   C2A 3534   6.809  22.497   4.970  0.1623 -0.2481 -0.0618
    1DPPC   C3A 3535   7.021  22.568   4.526  0.0362  0.0592 -0.4430
    1DPPC   C4A 3536   7.310  22.561   4.135  0.0217  0.3679  0.2484
    1DPPC   C1B 3537   6.510  22.079   4.994  0.1576  0.0530 -0.4841
    1DPPC   C2B 3538   6.533  22.313   4.579  0.1269  0.1163  0.0644
    1DPPC   C3B 3539   6.442  22.351   4.184 -0.0286  0.0598  0.0095
    1DPPC   C4B 3540   6.091  22.289   4.050  0.2399 -0.0011 -0.0512
    1DPPC   NC3 3541   0.672  16.699   6.924 -0.1365  0.0990  0.1098
    1DPPC   PO4 3542   0.708  17.075   6.573  0.1124 -0.2149 -0.1637
    1DPPC   GL1 3543   0.615  16.828   6.184 -0.4791  0.3715  0.0148
    1DPPC   GL2 3544   0.323  16.808   5.979 -0.1140 -0.1062 -0.0464
    1DPPC   C1A 3545   0.745  16.646   5.812 -0.2524 -0.2231  0.0767
    1DPPC   C2A 3546   0.739  16.701   5.285 -0.1565  0.1501  0.1838
    1DPPC   C3A 3547   0.666  16.603   4.879 -0.1737  0.1135 -0.0446
    1DPPC   C4A 3548   0.517  16.882   4.529  0.0347  0.0312  0.0907
    1DPPC   C1B 3549   0.308  16.754   5.605 -0.2425  0.0058  0.1069
    1DPPC   C2B 3550   0.209  16.702   5.144 -0.1028 -0.2716 -0.2226
    1DPPC   C3B 3551   0.062  16.823   4.734 -0.0785 -0.0680 -0.2585
    1DPPC   C4B 3552  30.122  17.158   4.622 -0.1730  0.1689  0.1260
    1DPPC   NC3 3553  28.175  17.788   6.533  0.0217 -0.2332  0.1886
    1DPPC   PO4 3554  28.388  17.451   6.356  0.0411 -0.0956  0.3049
    1DPPC   GL1 3555  28.614  17.372   6.002 -0.2423  0.0020 -0.0083
    1DPPC   GL2 3556  28.601  17.467   5.639  0.0477 -0.2879 -0.1688
    1DPPC   C1A 3557  29.003  17.273   5.869 -0.0084  0.3010 -0.2085
    1DPPC   C2A 3558  29.037  16.997   5.506 -0.0041  0.4233 -0.1212
    1DPPC   C3A 3559  29.144  16.855   5.070 -0.3199 -0.0290 -0.3360
    1DPPC   C4A 3560  29.240  16.730   4.605  0.4237 -0.0866 -0.0761
    1DPPC   C1B 3561  28.779  17.414   5.340  0.1655  0.0501  0.0967
    1DPPC   C2B 3562  28.901  17.255   4.971  0.1223 -0.1103 -0.1241
    1DPPC   C3B 3563  28.809  17.117   4.651  0.1313  0.1452 -0.2003
    1DPPC   C4B 3564  28.727  16.715   4.408  0.2403 -0.0331  0.2056
    1DPPC   NC3 3565  25.868  16.626   6.570  0.0523  0.0776  0.0358
    1DPPC   PO4 3566  25.695  16.991   6.285 -0.1013  0.1393  0.1604
    1DPPC   GL1 3567  25.960  16.757   5.912  0.0946  0.0548  0.3169
    1DPPC   GL2 3568  26.241  16.582   5.850 -0.1053  0.1771 -0.2234
    1DPPC   C1A 3569  25.814  16.621   5.566  0.2066  0.0897 -0.3204
    1DPPC   C2A 3570  25.859  16.559   5.103 -0.1332 -0.1559  0.3092
    1DPPC   C3A 3571  26.082  16.574   4.708 -0.1792  0.1322  0.4444
    1DPPC   C4A 3572  26.351  16.542   4.320  0.1949  0.1383  0.1887
    1DPPC   C1B 3573  26.297  16.462   5.499  0.0389 -0.0361 -0.2253
    1DPPC   C2B 3574  26.310  16.279   5.118 -0.0011  0.0407 -0.1293
    1DPPC   C3B 3575  26.438  16.194   4.677  0.3275  0.1210 -0.0007
    1DPPC   C4B 3576  26.767  16.209   4.286 -0.2453  0.1555  0.1208
    1DPPC   NC3 3577   2.345  13.438   6.617  0.4198  0.1163  0.2826
    1DPPC   PO4 3578   2.161  13.024   6.799  0.1484  0.0631 -0.0301
    1DPPC   GL1 3579   2.197  12.831   6.389  0.1628  0.0189 -0.0285
    1DPPC   GL2 3580   2.455  12.876   6.251 -0.2588 -0.0168  0.1412
    1DPPC   C1A 3581   2.158  12.571   6.008 -0.2583  0.1078 -0.2067
    1DPPC   C2A 3582   2.461  12.477   5.606 -0.1938 -0.2033 -0.0714
    1DPPC   C3A 3583   2.443  12.413   5.197 -0.1276 -0.1162  0.0046
    1DPPC   C4A 3584   2.556  12.072   4.862  0.2858  0.1962 -0.0805
    1DPPC   C1B 3585   2.396  12.927   5.736  0.0027 -0.1905 -0.1834
    1DPPC   C2B 3586   2.323  12.902   5.332  0.1829 -0.0137 -0.0603
    1DPPC   C3B 3587   2.257  12.703   4.882  0.1199 -0.1120 -0.1908
    1DPPC   C4B 3588   2.058  12.772   4.493 -0.1759  0.3438 -0.0502
    1DPPC   NC3 3589   6.131  12.637   6.709 -0.0265 -0.0672  0.2803
    1DPPC   PO4 3590   5.835  12.892   6.878 -0.0053  0.2328 -0.0454
    1DPPC   GL1 3591   5.777  13.120   6.446  0.3824  0.3618 -0.2877
    1DPPC   GL2 3592   6.010  13.138   6.215  0.0321  0.2774 -0.2975
    1DPPC   C1A 3593   5.575  12.963   6.063  0.1343  0.0675 -0.1400
    1DPPC   C2A 3594   5.403  12.917   5.618  0.1473 -0.0984  0.2726
    1DPPC   C3A 3595   5.457  12.894   5.153 -0.0216 -0.0225  0.3062
    1DPPC   C4A 3596   5.256  12.990   4.688 -0.3027 -0.0595 -0.0997
    1DPPC   C1B 3597   6.385  12.929   5.966  0.0311  0.0633  0.1476
    1DPPC   C2B 3598   6.440  12.923   5.515 -0.2785 -0.0114  0.1459
    1DPPC   C3B 3599   6.458  13.240   5.192  0.0421 -0.0971 -0.3813
    1DPPC   C4B 3600   6.333  13.452   4.836  0.1539 -0.4044 -0.3456
    1DPPC   NC3 3601  28.379  16.470   5.966  0.0801  0.0234  0.1729
    1DPPC   PO4 3602  28.852  16.619   6.101  0.2107 -0.0189  0.1947
    1DPPC   GL1 3603  28.875  16.514   5.660  0.2601  0.3213 -0.0528
    1DPPC   GL2 3604  28.539  16.291   5.550 -0.1487 -0.1254  0.0230
    1DPPC   C1A 3605  28.868  16.486   5.253 -0.1815  0.1405  0.0461
    1DPPC   C2A 3606  28.905  16.415   4.854 -0.0028  0.1322  0.0513
    1DPPC   C3A 3607  29.163  16.163   4.695  0.2829  0.2079 -0.0679
    1DPPC   C4A 3608  28.999  15.929   4.381 -0.0555 -0.0013  0.3222
    1DPPC   C1B 3609  28.560  16.119   5.154 -0.3649 -0.2622  0.0777
    1DPPC   C2B 3610  28.661  16.003   4.783  0.1185  0.1786  0.0477
    1DPPC   C3B 3611  28.546  15.666   4.438 -0.0078 -0.1277 -0.1353
    1DPPC   C4B 3612  28.608  15.231   4.304  0.0505 -0.1838  0.0351
    1DPPC   NC3 3613   3.805  15.909   7.043  0.3691  0.1679 -0.1967
    1DPPC   PO4 3614   4.095  15.979   6.619 -0.1034  0.2338 -0.3703
    1DPPC   GL1 3615   4.160  16.113   6.155 -0.0290  0.0818  0.0560
    1DPPC   GL2 3616   3.808  16.133   6.007  0.0856 -0.2627 -0.0168
    1DPPC   C1A 3617   4.346  16.267   5.792  0.0159 -0.0536 -0.0299
    1DPPC   C2A 3618   4.437  16.174   5.273  0.0548  0.0961  0.1570
    1DPPC   C3A 3619   4.533  16.126   4.818  0.0034 -0.3486 -0.1806
    1DPPC   C4A 3620   4.625  16.158   4.393  0.3063 -0.3598 -0.0318
    1DPPC   C1B 3621   3.913  16.022   5.570  0.0199  0.1335 -0.0112
    1DPPC   C2B 3622   3.938  16.026   5.139  0.0874 -0.1854 -0.1018
    1DPPC   C3B 3623   4.049  15.885   4.693 -0.0257  0.1993 -0.2471
    1DPPC   C4B 3624   4.165  15.925   4.289  0.0942  0.1324  0.2655
    1DPPC   NC3 3625  20.826   4.129   6.827 -0.0375 -0.1560 -0.0889
    1DPPC   PO4 3626  20.678   4.445   6.625 -0.2294  0.0173  0.1233
    1DPPC   GL1 3627  20.872   4.371   6.310 -0.1368 -0.2250  0.1459
    1DPPC   GL2 3628  21.098   4.094   6.351 -0.1710  0.0878 -0.1547
    1DPPC   C1A 3629  20.827   4.480   5.879  0.0034 -0.0791  0.7272
    1DPPC   C2A 3630  20.786   4.528   5.437  0.3883 -0.0504  0.1855
    1DPPC   C3A 3631  20.809   4.512   5.051 -0.2418 -0.0297  0.0760
    1DPPC   C4A 3632  20.803   4.514   4.659  0.0236 -0.0915  0.1103
    1DPPC   C1B 3633  21.090   3.978   5.960 -0.3707 -0.1999  0.2272
    1DPPC   C2B 3634  21.110   3.964   5.443 -0.0902 -0.0971 -0.0904
    1DPPC   C3B 3635  21.459   3.943   5.077 -0.1279 -0.1145  0.0813
    1DPPC   C4B 3636  21.486   4.221   4.691 -0.2048  0.0354  0.0293
    1DPPC   NC3 3637   4.275   8.077   6.293 -0.1806  0.0441  0.2681
    1DPPC   PO4 3638   4.242   7.898   6.604  0.2392  0.0210 -0.2974
    1DPPC   GL1 3639   4.013   7.644   6.302  0.2784 -0.2685  0.3150
    1DPPC   GL2 3640   4.289   7.645   5.983 -0.0659  0.3578 -0.0158
    1DPPC   C1A 3641   3.830   7.366   5.888  0.0443  0.2733 -0.2030
    1DPPC   C2A 3642   3.705   7.489   5.444 -0.0383 -0.1873 -0.1228
    1DPPC   C3A 3643   3.746   7.432   5.010 -0.3730  0.1219  0.0066
    1DPPC   C4A 3644   4.075   7.564   4.744 -0.2853 -0.0702  0.2974
    1DPPC   C1B 3645   4.065   7.812   5.741 -0.1838 -0.2491  0.0526
    1DPPC   C2B 3646   4.125   7.749   5.233 -0.1231  0.3644  0.0250
    1DPPC   C3B 3647   4.603   7.667   5.070 -0.0592 -0.3626  0.0065
    1DPPC   C4B 3648   5.022   7.511   4.908 -0.0735 -0.2003  0.0674
    1DIPC   NC3 3649   0.220   0.546   7.541 -0.1524 -0.0152  0.0861
    1DIPC   PO4 3650   0.327   0.438   7.069  0.4103 -0.2911 -0.2074
    1DIPC   GL1 3651   0.504   0.081   6.775 -0.2508 -0.1099 -0.0635
    1DIPC   GL2 3652   0.823   0.109   6.676  0.0166  0.0780 -0.3178
    1DIPC   C1A 3653   0.525  30.295   6.331 -0.1605  0.2075  0.1149
    1DIPC   D2A 3654   0.618  30.217   6.023 -0.1027 -0.1015  0.0399
    1DIPC   D3A 3655   0.190  30.262   6.002  0.1971 -0.1682  0.2062
    1DIPC   C4A 3656  30.266  29.853   5.787  0.1465 -0.1812 -0.0345
    1DIPC   C1B 3657   0.735   0.418   6.344 -0.0330 -0.1116  0.4932
    1DIPC   D2B 3658   0.447   0.385   6.079  0.1132  0.1971  0.3253
    1DIPC   D3B 3659   0.540   0.198   5.622 -0.2562  0.2099 -0.1114
    1DIPC   C4B 3660   0.646   0.477   5.334  0.1400 -0.1891  0.1543
    1DIPC   NC3 3661  24.574  18.293   5.883  0.1640  0.1218 -0.1345
    1DIPC   PO4 3662  24.146  18.460   6.006 -0.1431 -0.0500 -0.0126
    1DIPC   GL1 3663  24.279  18.486   5.519  0.2675  0.0367 -0.4865
    1DIPC   GL2 3664  24.209  18.824   5.376  0.0373 -0.2370  0.4309
    1DIPC   C1A 3665  24.443  18.371   5.119  0.1573 -0.2858 -0.0523
    1DIPC   D2A 3666  24.531  18.255   4.681  0.0409  0.3555 -0.1527
    1DIPC   D3A 3667  24.353  18.169   4.298  0.1955  0.2077  0.1058
    1DIPC   C4A 3668  24.223  18.506   4.103 -0.0070  0.2984  0.3381
    1DIPC   C1B 3669  24.221  18.901   4.921 -0.0690 -0.1975 -0.0659
    1DIPC   D2B 3670  24.229  18.612   4.587  0.2643  0.1670 -0.0943
    1DIPC   D3B 3671  24.368  18.965   4.383  0.1069  0.0786  0.3556
    1DIPC   C4B 3672  24.628  18.932   4.154 -0.0736  0.0855  0.0001
    1DIPC   NC3 3673   0.756  29.325   7.142 -0.1560 -0.0801  0.1837
    1DIPC   PO4 3674   1.168  29.294   6.973 -0.3367 -0.0252 -0.0910
    1DIPC   GL1 3675   1.345  29.523   6.582 -0.1979 -0.1650  0.1925
    1DIPC   GL2 3676   1.597  29.451   6.755 -0.1803  0.0036  0.1104
    1DIPC   C1A 3677   1.156  29.520   6.172 -0.2730 -0.1139  0.4707
    1DIPC   D2A 3678   0.723  29.534   6.179  0.1508 -0.2908  0.0864
    1DIPC   D3A 3679   0.789  29.123   5.962 -0.0481  0.1314 -0.0004
    1DIPC   C4A 3680   0.968  28.791   5.677  0.1419  0.1570  0.1788
    1DIPC   C1B 3681   1.928  29.197   6.695 -0.2955  0.0112 -0.3174
    1DIPC   D2B 3682   2.125  28.957   6.408  0.0886 -0.2492 -0.0812
    1DIPC   D3B 3683   1.911  29.142   5.989 -0.1969  0.3715 -0.1040
    1DIPC   C4B 3684   1.507  29.135   5.831 -0.0404  0.0014  0.2090
    1DIPC   NC3 3685  10.787  25.553   6.028 -0.1825  0.1263  0.2128
    1DIPC   PO4 3686  10.893  26.000   6.051 -0.1121 -0.1685  0.1155
    1DIPC   GL1 3687  10.854  25.992   5.646  0.1520  0.2173  0.1628
    1DIPC   GL2 3688  10.734  26.324   5.610  0.3367  0.1348 -0.1224
    1DIPC   C1A 3689  10.939  25.961   5.236  0.0572  0.2992  0.1506
    1DIPC   D2A 3690  10.888  25.765   4.849 -0.1280  0.0060 -0.0843
    1DIPC   D3A 3691  10.420  25.860   4.689  0.1234 -0.0344  0.0912
    1DIPC   C4A 3692  10.054  25.599   4.624  0.3394 -0.0850  0.0109
    1DIPC   C1B 3693  10.957  26.437   5.333  0.0525 -0.6384  0.1960
    1DIPC   D2B 3694  10.770  26.858   5.234 -0.1486  0.2008 -0.0644
    1DIPC   D3B 3695  10.639  26.933   4.778  0.3334  0.2272  0.1280
    1DIPC   C4B 3696  10.884  26.628   4.529 -0.0237  0.1802 -0.0806
    1DIPC   NC3 3697   9.675  22.800   6.160  0.3490  0.4367  0.0600
    1DIPC   PO4 3698   9.941  22.596   5.962  0.0364 -0.0466 -0.2691
    1DIPC   GL1 3699   9.984  22.567   5.595 -0.2501  0.0003  0.1159
    1DIPC   GL2 3700  10.169  22.277   5.507  0.1605 -0.1750 -0.0425
    1DIPC   C1A 3701  10.007  22.780   5.357 -0.0339  0.0351  0.0716
    1DIPC   D2A 3702   9.938  22.723   4.953 -0.0838 -0.0145 -0.0391
    1DIPC   D3A 3703  10.122  22.787   4.643  0.1334  0.0515 -0.0725
    1DIPC   C4A 3704  10.363  22.665   4.308 -0.2130  0.0812 -0.1803
    1DIPC   C1B 3705  10.319  22.383   5.168 -0.0188 -0.1034 -0.3602
    1DIPC   D2B 3706  10.451  22.436   4.836 -0.0223  0.0192 -0.0402
    1DIPC   D3B 3707  10.724  22.377   4.595 -0.2987 -0.1808  0.0175
    1DIPC   C4B 3708  11.180  22.290   4.697 -0.0655  0.1144  0.2356
    1DIPC   NC3 3709  21.568  22.889   6.284 -0.0769 -0.4761 -0.1944
    1DIPC   PO4 3710  21.657  23.296   6.298 -0.1598 -0.2844  0.2804
    1DIPC   GL1 3711  21.679  23.256   5.809  0.1119  0.0712 -0.1195
    1DIPC   GL2 3712  21.720  22.976   5.787 -0.0981 -0.0798 -0.2155
    1DIPC   C1A 3713  21.644  23.242   5.327 -0.1461 -0.1018  0.1843
    1DIPC   D2A 3714  21.248  23.166   5.007  0.0180  0.0685  0.5297
    1DIPC   D3A 3715  21.221  23.050   4.512  0.1099 -0.1326 -0.0971
    1DIPC   C4A 3716  21.304  23.437   4.197 -0.2427 -0.1307  0.0613
    1DIPC   C1B 3717  22.103  22.921   5.539 -0.2507  0.0290  0.1594
    1DIPC   D2B 3718  22.121  23.024   5.102  0.3906 -0.1698 -0.2904
    1DIPC   D3B 3719  21.724  23.071   4.822  0.0247  0.2434  0.2854
    1DIPC   C4B 3720  21.450  22.725   4.811  0.1642  0.1679 -0.0915
    1DIPC   NC3 3721  20.951  15.169   6.670  0.3281  0.1410 -0.0460
    1DIPC   PO4 3722  20.761  14.827   6.379 -0.1914 -0.2543 -0.0682
    1DIPC   GL1 3723  20.377  15.021   6.120 -0.0260 -0.0395 -0.2450
    1DIPC   GL2 3724  20.108  15.241   5.976 -0.3454  0.1426 -0.2469
    1DIPC   C1A 3725  20.564  15.260   5.676 -0.2453 -0.2510 -0.1881
    1DIPC   D2A 3726  20.700  15.318   5.294 -0.0605  0.0495 -0.0505
    1DIPC   D3A 3727  20.393  15.565   5.058 -0.1056  0.0072  0.0970
    1DIPC   C4A 3728  20.035  15.332   4.757  0.1405  0.0779 -0.1733
    1DIPC   C1B 3729  19.772  15.110   5.649  0.1246  0.1932  0.2127
    1DIPC   D2B 3730  19.523  14.665   5.510 -0.0646 -0.0258 -0.0792
    1DIPC   D3B 3731  19.675  14.624   5.169  0.3092  0.1351 -0.0868
    1DIPC   C4B 3732  20.028  14.631   5.095 -0.0017  0.2522 -0.2001
    1DIPC   NC3 3733  17.470  24.638   6.521  0.0317  0.2326 -0.5817
    1DIPC   PO4 3734  16.937  24.771   6.512 -0.4629  0.2400  0.0591
    1DIPC   GL1 3735  16.786  24.881   6.114 -0.0037  0.2131  0.2059
    1DIPC   GL2 3736  16.528  24.714   5.868  0.0372 -0.2835  0.1501
    1DIPC   C1A 3737  17.118  25.063   5.834  0.1129 -0.1849 -0.1315
    1DIPC   D2A 3738  17.419  25.193   5.504  0.2074  0.2741  0.2458
    1DIPC   D3A 3739  17.341  25.391   5.073 -0.1437 -0.1972 -0.1284
    1DIPC   C4A 3740  17.717  25.367   4.875 -0.0488 -0.2361  0.1075
    1DIPC   C1B 3741  16.713  24.937   5.573 -0.0701  0.3808  0.0285
    1DIPC   D2B 3742  16.931  25.245   5.401  0.1029  0.0803 -0.1881
    1DIPC   D3B 3743  16.609  25.131   5.109 -0.0474 -0.3161  0.0269
    1DIPC   C4B 3744  16.221  25.067   5.363 -0.1481 -0.0130  0.1904
    1DIPC   NC3 3745  19.844  23.770   6.306 -0.1139 -0.0378  0.1192
    1DIPC   PO4 3746  20.381  23.742   6.299 -0.1610  0.0305 -0.4990
    1DIPC   GL1 3747  20.447  23.657   5.905 -0.0121  0.1297 -0.2626
    1DIPC   GL2 3748  20.817  23.653   5.777 -0.1507 -0.1510 -0.0877
    1DIPC   C1A 3749  20.427  23.883   5.552  0.0056  0.0057 -0.0140
    1DIPC   D2A 3750  20.508  24.177   5.171 -0.0701  0.0638  0.2154
    1DIPC   D3A 3751  21.001  24.322   5.040  0.0985  0.0353  0.0322
    1DIPC   C4A 3752  21.167  24.381   4.757 -0.1104 -0.1025 -0.2396
    1DIPC   C1B 3753  20.985  23.405   5.503 -0.1959  0.1770 -0.1538
    1DIPC   D2B 3754  21.261  23.041   5.588  0.0806  0.0664 -0.1828
    1DIPC   D3B 3755  21.381  22.742   5.355  0.0572  0.2889  0.0559
    1DIPC   C4B 3756  21.743  22.674   5.251 -0.2599 -0.1095  0.0049
    1DIPC   NC3 3757  21.879  22.116   6.073 -0.0422 -0.1958  0.3935
    1DIPC   PO4 3758  22.226  21.874   5.999 -0.0499 -0.1770 -0.0762
    1DIPC   GL1 3759  22.408  21.740   5.637 -0.0252  0.1091  0.1711
    1DIPC   GL2 3760  22.257  21.872   5.364 -0.1396 -0.0315  0.1086
    1DIPC   C1A 3761  22.606  21.599   5.160  0.2447  0.3574 -0.0226
    1DIPC   D2A 3762  22.670  21.593   4.730 -0.1554  0.1259  0.0048
    1DIPC   D3A 3763  22.957  21.218   4.764  0.1417  0.1115 -0.0092
    1DIPC   C4A 3764  23.272  21.377   5.022 -0.4540  0.3213 -0.0836
    1DIPC   C1B 3765  22.249  21.901   4.896 -0.0422 -0.2649  0.4134
    1DIPC   D2B 3766  22.031  21.913   4.421 -0.0865  0.0778 -0.1695
    1DIPC   D3B 3767  22.384  21.961   4.390  0.0600  0.1090 -0.1810
    1DIPC   C4B 3768  22.610  21.806   4.115 -0.1418  0.0677 -0.1086
    1DIPC   NC3 3769   7.714  28.108   6.796  0.2214  0.3620 -0.0921
    1DIPC   PO4 3770   8.130  28.452   6.783  0.2442  0.2601  0.1464
    1DIPC   GL1 3771   8.010  28.571   6.381 -0.2421 -0.2628 -0.1457
    1DIPC   GL2 3772   8.261  28.389   6.124  0.3790  0.0365  0.0907
    1DIPC   C1A 3773   7.905  28.807   6.041 -0.1244 -0.1161  0.2143
    1DIPC   D2A 3774   7.863  29.106   5.795 -0.1763  0.0001  0.1160
    1DIPC   D3A 3775   7.515  28.840   5.710 -0.0563 -0.0377 -0.1999
    1DIPC   C4A 3776   7.549  28.537   5.416 -0.0498 -0.0396  0.2380
    1DIPC   C1B 3777   8.210  28.488   5.748 -0.1236  0.2160  0.1900
    1DIPC   D2B 3778   8.290  28.380   5.466 -0.1472 -0.3745 -0.0629
    1DIPC   D3B 3779   8.412  28.823   5.250 -0.2109 -0.1960  0.0392
    1DIPC   C4B 3780   8.573  28.789   4.841  0.1903 -0.1213 -0.2404
    1DIPC   NC3 3781   0.265   2.365   6.864  0.0229  0.1178 -0.2416
    1DIPC   PO4 3782   0.731   2.243   6.761  0.0702  0.1063  0.1388
    1DIPC   GL1 3783   0.493   2.402   6.385  0.0239  0.0793 -0.2716
    1DIPC   GL2 3784   0.560   2.819   6.459  0.0479 -0.0478  0.1834
    1DIPC   C1A 3785   0.703   2.612   6.029 -0.4443 -0.0610  0.0694
    1DIPC   D2A 3786   0.565   2.941   5.897  0.1482 -0.3359 -0.0981
    1DIPC   D3A 3787   0.783   3.060   5.530  0.0482 -0.1531  0.1063
    1DIPC   C4A 3788   1.067   3.480   5.492  0.2015 -0.2336  0.5459
    1DIPC   C1B 3789   0.211   2.842   6.250  0.5143  0.0149 -0.1829
    1DIPC   D2B 3790   0.117   2.640   5.873 -0.0754  0.0927 -0.0596
    1DIPC   D3B 3791   0.384   2.261   5.893 -0.0479  0.0123 -0.3224
    1DIPC   C4B 3792   0.418   2.187   5.445  0.2141  0.3762 -0.0521
    1DIPC   NC3 3793  18.221  11.774   6.168 -0.0409  0.2917 -0.0377
    1DIPC   PO4 3794  17.896  11.523   6.372  0.1746 -0.1586 -0.1007
    1DIPC   GL1 3795  17.729  11.788   6.013  0.1100  0.2823  0.1621
    1DIPC   GL2 3796  17.721  12.040   6.207 -0.2594 -0.0692  0.2552
    1DIPC   C1A 3797  17.635  11.928   5.674  0.1603  0.5327  0.1903
    1DIPC   D2A 3798  17.772  11.877   5.247 -0.2390 -0.3340  0.2034
    1DIPC   D3A 3799  18.136  12.032   5.160 -0.1079  0.2444 -0.0590
    1DIPC   C4A 3800  18.530  11.961   5.397 -0.0882 -0.0067 -0.3084
    1DIPC   C1B 3801  17.189  12.088   6.127  0.0271 -0.0544 -0.0783
    1DIPC   D2B 3802  16.799  12.001   6.087  0.1021 -0.1217 -0.0610
    1DIPC   D3B 3803  16.354  12.000   6.285 -0.2101 -0.1438  0.0616
    1DIPC   C4B 3804  16.075  12.105   6.069 -0.0095  0.0749 -0.2311
    1DIPC   NC3 3805  24.399  15.861   6.801  0.0376  0.2580 -0.2403
    1DIPC   PO4 3806  24.294  15.835   6.298 -0.0565  0.1521 -0.1492
    1DIPC   GL1 3807  24.339  15.653   5.836  0.1908  0.0112 -0.2654
    1DIPC   GL2 3808  24.185  15.242   5.716 -0.1195 -0.0146 -0.1160
    1DIPC   C1A 3809  24.165  15.765   5.463  0.1259 -0.0852  0.2912
    1DIPC   D2A 3810  24.029  16.111   5.086  0.3354 -0.1726  0.0344
    1DIPC   D3A 3811  24.078  16.471   4.781  0.1416  0.0589 -0.2109
    1DIPC   C4A 3812  24.186  16.322   4.380  0.0177 -0.1125 -0.1387
    1DIPC   C1B 3813  24.152  15.151   5.201 -0.2303 -0.1642 -0.2920
    1DIPC   D2B 3814  24.192  15.414   4.881  0.0142  0.2969 -0.1038
    1DIPC   D3B 3815  23.875  15.622   4.983  0.2466  0.0008 -0.0276
    1DIPC   C4B 3816  23.467  15.619   4.931  0.1846  0.2452 -0.2457
    1DIPC   NC3 3817  10.314  23.887   5.982  0.2154  0.1372 -0.1741
    1DIPC   PO4 3818  10.128  24.336   6.209  0.1835  0.3230  0.1062
    1DIPC   GL1 3819  10.084  24.237   5.718  0.0425 -0.3134  0.0195
    1DIPC   GL2 3820  10.183  24.517   5.592  0.0062  0.3472 -0.3022
    1DIPC   C1A 3821  10.150  23.879   5.402 -0.0868 -0.1250 -0.0088
    1DIPC   D2A 3822  10.115  23.957   4.908  0.0298 -0.2536 -0.0800
    1DIPC   D3A 3823  10.230  23.560   4.957  0.1707 -0.1040  0.1940
    1DIPC   C4A 3824  10.128  23.272   4.696 -0.1555 -0.0102 -0.3110
    1DIPC   C1B 3825  10.264  24.369   5.220 -0.0720 -0.1182 -0.0234
    1DIPC   D2B 3826  10.280  24.557   4.874  0.2149 -0.2924  0.2271
    1DIPC   D3B 3827  10.348  24.612   4.500  0.0692 -0.1242  0.0203
    1DIPC   C4B 3828  10.042  24.825   4.218  0.2096 -0.3804 -0.0642
    1DIPC   NC3 3829   9.710  26.607   6.025  0.2217  0.1292 -0.1184
    1DIPC   PO4 3830   9.469  26.775   6.311 -0.1977 -0.1282  0.0841
    1DIPC   GL1 3831   9.264  26.797   5.818 -0.1421  0.1992 -0.3210
    1DIPC   GL2 3832   8.940  26.605   5.712 -0.0580 -0.0759  0.1139
    1DIPC   C1A 3833   8.884  27.132   5.651 -0.3713  0.1862 -0.0280
    1DIPC   D2A 3834   8.925  27.615   5.607  0.0729  0.0157  0.0678
    1DIPC   D3A 3835   8.776  28.007   5.460 -0.1204 -0.0355  0.2159
    1DIPC   C4A 3836   8.660  28.227   5.048  0.0384 -0.1474  0.2105
    1DIPC   C1B 3837   8.776  26.328   5.412  0.3944  0.0767  0.0965
    1DIPC   D2B 3838   8.835  26.045   5.052  0.1662  0.1509  0.0144
    1DIPC   D3B 3839   9.108  26.234   4.664 -0.2405  0.1726  0.3427
    1DIPC   C4B 3840   9.335  26.647   4.728  0.0994  0.1448  0.0570
    1DIPC   NC3 3841  11.321  23.821   5.960  0.2452  0.4209  0.0902
    1DIPC   PO4 3842  11.646  24.190   5.956  0.0682 -0.0014  0.0018
    1DIPC   GL1 3843  11.777  24.167   5.579  0.1822  0.2417  0.0312
    1DIPC   GL2 3844  11.584  23.962   5.517  0.1288  0.2987 -0.2319
    1DIPC   C1A 3845  12.127  24.056   5.297 -0.2093 -0.4943 -0.1207
    1DIPC   D2A 3846  12.415  23.722   5.308  0.1228  0.0643  0.2661
    1DIPC   D3A 3847  12.728  23.764   4.917 -0.0528  0.0307  0.0940
    1DIPC   C4A 3848  12.581  23.884   4.442 -0.0584 -0.2819  0.2350
    1DIPC   C1B 3849  11.358  23.950   5.090 -0.1574 -0.0624  0.0397
    1DIPC   D2B 3850  11.093  23.651   5.030 -0.0121  0.1171  0.1928
    1DIPC   D3B 3851  11.151  23.652   4.595  0.0173 -0.1117  0.0974
    1DIPC   C4B 3852  11.010  23.258   4.450  0.0644  0.0941  0.0125
    1DIPC   NC3 3853   8.876  12.429   7.156  0.0190 -0.1478 -0.0855
    1DIPC   PO4 3854   8.644  12.680   6.879 -0.1030  0.1435  0.0067
    1DIPC   GL1 3855   8.797  12.799   6.612  0.0371 -0.3260  0.0196
    1DIPC   GL2 3856   8.923  12.625   6.363 -0.2269  0.0084  0.0116
    1DIPC   C1A 3857   8.533  12.839   6.107 -0.0554  0.0788 -0.1185
    1DIPC   D2A 3858   8.125  12.755   6.101  0.0431  0.2393 -0.4052
    1DIPC   D3A 3859   7.952  12.926   5.756  0.0358 -0.1456 -0.0657
    1DIPC   C4A 3860   7.834  12.646   5.294  0.1627  0.1299 -0.0588
    1DIPC   C1B 3861   9.040  12.627   5.976  0.0131  0.0558 -0.0071
    1DIPC   D2B 3862   8.972  12.286   5.677  0.2447 -0.1322 -0.0503
    1DIPC   D3B 3863   8.802  11.984   5.985  0.0009  0.1282 -0.1498
    1DIPC   C4B 3864   8.715  12.173   6.432  0.2556  0.0930 -0.2117
    1DIPC   NC3 3865   6.382   1.000   7.457 -0.1282 -0.2256  0.1813
    1DIPC   PO4 3866   5.933   1.218   7.360  0.1641  0.1411 -0.2146
    1DIPC   GL1 3867   5.837   1.380   7.041 -0.0812  0.2685  0.0754
    1DIPC   GL2 3868   5.538   1.479   7.075 -0.0769 -0.1389 -0.4536
    1DIPC   C1A 3869   5.893   1.419   6.538  0.3159 -0.1025 -0.1298
    1DIPC   D2A 3870   5.615   1.157   6.270  0.0459 -0.2411  0.1591
    1DIPC   D3A 3871   5.783   1.204   5.795 -0.1169  0.0504 -0.1466
    1DIPC   C4A 3872   6.192   1.118   5.759 -0.0753  0.1178  0.0380
    1DIPC   C1B 3873   5.422   1.085   6.740 -0.1669 -0.4254 -0.3364
    1DIPC   D2B 3874   5.290   0.815   6.425  0.0968  0.7366 -0.0254
    1DIPC   D3B 3875   5.338   0.442   6.094 -0.1811 -0.0916 -0.0587
    1DIPC   C4B 3876   5.555   0.619   5.782 -0.0386 -0.1296  0.0616
    1DIPC   NC3 3877  27.294   3.836   7.904 -0.1034  0.0796  0.4031
    1DIPC   PO4 3878  27.145   3.749   7.488 -0.1108  0.2879  0.3947
    1DIPC   GL1 3879  27.157   3.848   7.056 -0.1866  0.0736 -0.0536
    1DIPC   GL2 3880  26.923   3.712   6.830  0.2043  0.2093 -0.0279
    1DIPC   C1A 3881  27.218   4.164   6.777 -0.0409 -0.1261  0.0607
    1DIPC   D2A 3882  27.187   4.500   6.440 -0.3407  0.1487 -0.2427
    1DIPC   D3A 3883  27.246   4.241   6.053 -0.1301  0.0732 -0.0589
    1DIPC   C4A 3884  27.255   4.286   5.662  0.0296 -0.0856 -0.1233
    1DIPC   C1B 3885  26.707   4.073   6.598  0.0417  0.0493 -0.0045
    1DIPC   D2B 3886  26.713   4.439   6.354 -0.0105  0.0082  0.0059
    1DIPC   D3B 3887  26.653   4.261   5.956 -0.1072  0.0219  0.0153
    1DIPC   C4B 3888  26.253   4.439   5.803 -0.2428  0.0104 -0.0341
    1DIPC   NC3 3889  16.053  18.613   5.976 -0.0361  0.0424 -0.0534
    1DIPC   PO4 3890  15.753  18.943   6.074 -0.1315 -0.0062  0.0866
    1DIPC   GL1 3891  15.796  18.889   5.598 -0.0705  0.0354  0.0829
    1DIPC   GL2 3892  16.168  18.744   5.511 -0.1557 -0.0267 -0.2984
    1DIPC   C1A 3893  15.669  18.633   5.288 -0.1301 -0.2519 -0.3452
    1DIPC   D2A 3894  15.873  18.435   4.898  0.0225  0.3493 -0.0579
    1DIPC   D3A 3895  15.782  18.076   5.008  0.1525  0.0271  0.2393
    1DIPC   C4A 3896  16.040  17.918   4.715 -0.0672  0.2198  0.2896
    1DIPC   C1B 3897  16.422  18.712   5.112  0.0783  0.0475  0.1338
    1DIPC   D2B 3898  16.119  18.843   4.778 -0.0239 -0.1244  0.1265
    1DIPC   D3B 3899  15.879  19.025   5.069 -0.1650  0.1110  0.0447
    1DIPC   C4B 3900  15.712  19.461   4.956 -0.2168  0.4049 -0.0719
    1DIPC   NC3 3901  12.557  24.490   6.670  0.0135 -0.2343 -0.2929
    1DIPC   PO4 3902  12.732  24.236   6.456  0.0433  0.0076 -0.1465
    1DIPC   GL1 3903  12.525  24.429   6.142 -0.0689  0.0176 -0.0958
    1DIPC   GL2 3904  12.594  24.812   6.030  0.0998  0.1853  0.2496
    1DIPC   C1A 3905  12.432  24.515   5.708 -0.3063 -0.4145 -0.1045
    1DIPC   D2A 3906  12.229  24.521   5.285 -0.0624  0.0978  0.1090
    1DIPC   D3A 3907  12.580  24.250   5.152  0.1284  0.2277  0.1099
    1DIPC   C4A 3908  12.773  24.287   4.770 -0.1306  0.1099  0.0292
    1DIPC   C1B 3909  12.901  24.702   5.797  0.2550 -0.4696  0.1044
    1DIPC   D2B 3910  12.795  24.700   5.345 -0.0780  0.2007  0.0897
    1DIPC   D3B 3911  13.080  24.539   5.007  0.0123 -0.2117 -0.0078
    1DIPC   C4B 3912  13.088  24.728   4.629 -0.2756  0.3569 -0.2267
    1DIPC   NC3 3913  25.188  10.095   6.130  0.1373 -0.0082  0.0144
    1DIPC   PO4 3914  25.099  10.483   6.041  0.1669  0.0643  0.0547
    1DIPC   GL1 3915  24.983  10.307   5.586  0.2723 -0.1520  0.1270
    1DIPC   GL2 3916  24.987  10.617   5.335 -0.3838  0.3873 -0.0702
    1DIPC   C1A 3917  24.613   9.938   5.390  0.1307 -0.4372  0.0795
    1DIPC   D2A 3918  24.321   9.667   5.280  0.1133  0.1020 -0.0222
    1DIPC   D3A 3919  24.496   9.832   4.933 -0.0645 -0.0997 -0.0733
    1DIPC   C4A 3920  24.747  10.214   4.981  0.1071  0.0263  0.1761
    1DIPC   C1B 3921  25.243  10.465   5.040 -0.0080  0.2256 -0.0797
    1DIPC   D2B 3922  25.306  10.425   4.641  0.0754 -0.1530 -0.0282
    1DIPC   D3B 3923  25.492  10.771   4.575  0.1177 -0.2458  0.0109
    1DIPC   C4B 3924  25.467  11.095   4.365 -0.0715  0.0155  0.2531
    1DIPC   NC3 3925  10.070  28.431   6.873  0.1034 -0.1207 -0.1595
    1DIPC   PO4 3926   9.578  28.612   6.907  0.0845 -0.1669 -0.0230
    1DIPC   GL1 3927   9.630  28.612   6.439 -0.0929  0.1393  0.3388
    1DIPC   GL2 3928   9.855  28.708   6.341  0.1859 -0.1931  0.0279
    1DIPC   C1A 3929   9.322  28.608   6.159 -0.0508  0.1373  0.1576
    1DIPC   D2A 3930   9.044  28.742   5.848 -0.0866 -0.4032  0.0810
    1DIPC   D3A 3931   9.015  28.992   5.444 -0.0263 -0.1017 -0.3600
    1DIPC   C4A 3932   9.063  29.479   5.356 -0.0686  0.2675 -0.0360
    1DIPC   C1B 3933   9.953  28.556   5.930 -0.3184  0.0960  0.0384
    1DIPC   D2B 3934   9.856  28.619   5.452 -0.3690 -0.0315  0.0242
    1DIPC   D3B 3935   9.738  28.854   5.120  0.2461 -0.0008  0.5249
    1DIPC   C4B 3936   9.256  29.087   4.982  0.1288 -0.0345  0.0273
    1DIPC   NC3 3937  19.237   6.351   6.371 -0.2617  0.0651 -0.0988
    1DIPC   PO4 3938  18.843   6.580   6.257  0.3154 -0.0054  0.0070
    1DIPC   GL1 3939  19.010   6.522   5.870  0.1405  0.1274  0.1329
    1DIPC   GL2 3940  19.295   6.711   5.627 -0.2162 -0.3960  0.0434
    1DIPC   C1A 3941  19.120   6.141   5.568  0.0247  0.1015  0.3822
    1DIPC   D2A 3942  19.268   6.036   5.154 -0.1923 -0.0419  0.1789
    1DIPC   D3A 3943  18.787   5.952   5.051 -0.2795 -0.1411 -0.2288
    1DIPC   C4A 3944  18.700   5.830   5.463  0.1142 -0.0629  0.2358
    1DIPC   C1B 3945  19.175   6.564   5.282 -0.1320 -0.0579 -0.2543
    1DIPC   D2B 3946  18.934   6.409   5.067 -0.0234  0.1615 -0.1915
    1DIPC   D3B 3947  19.152   6.196   4.664  0.0541 -0.0934  0.1209
    1DIPC   C4B 3948  19.274   6.558   4.345 -0.0635  0.0819  0.3610
    1DIPC   NC3 3949  11.190  11.978   7.332 -0.1465 -0.0478  0.1184
    1DIPC   PO4 3950  11.369  12.222   7.009 -0.3034  0.0894  0.0270
    1DIPC   GL1 3951  11.347  12.368   6.611  0.1484  0.2750 -0.3776
    1DIPC   GL2 3952  11.124  12.607   6.688  0.0373  0.3450 -0.1155
    1DIPC   C1A 3953  11.489  12.406   6.258 -0.1700 -0.0146 -0.2844
    1DIPC   D2A 3954  11.473  12.458   5.802  0.0105  0.1399  0.3578
    1DIPC   D3A 3955  11.481  12.225   5.490 -0.0751  0.0500 -0.0785
    1DIPC   C4A 3956  11.917  12.191   5.412  0.1063  0.0904  0.2725
    1DIPC   C1B 3957  10.968  12.705   6.435 -0.2680 -0.1763  0.3481
    1DIPC   D2B 3958  10.588  12.681   6.204  0.2026 -0.0912  0.0232
    1DIPC   D3B 3959  10.525  12.451   5.803  0.2317 -0.1541  0.1173
    1DIPC   C4B 3960  10.246  12.637   5.577  0.1760 -0.2677  0.0236
    1DIPC   NC3 3961  18.748  26.777   6.582 -0.1633 -0.2304 -0.1811
    1DIPC   PO4 3962  18.526  26.501   6.303  0.1353 -0.1619  0.0371
    1DIPC   GL1 3963  18.517  26.704   5.998 -0.0275  0.0004  0.2671
    1DIPC   GL2 3964  18.496  26.452   5.820 -0.1305  0.0152  0.1023
    1DIPC   C1A 3965  18.339  27.017   5.756 -0.0108  0.1833 -0.2145
    1DIPC   D2A 3966  18.263  27.253   5.358  0.0034  0.2457  0.3381
    1DIPC   D3A 3967  18.331  26.774   5.260 -0.2404 -0.1654  0.1734
    1DIPC   C4A 3968  18.097  26.514   5.498  0.3690  0.0444 -0.2487
    1DIPC   C1B 3969  18.569  26.391   5.439  0.2382  0.2128  0.2055
    1DIPC   D2B 3970  18.320  26.309   5.018 -0.3874  0.2908 -0.0345
    1DIPC   D3B 3971  18.070  26.551   4.799 -0.0254 -0.1579 -0.3768
    1DIPC   C4B 3972  18.102  26.988   4.921  0.0664  0.0266 -0.1047
    1DIPC   NC3 3973  15.317   9.428   6.364  0.2387 -0.2572 -0.0621
    1DIPC   PO4 3974  15.468   9.824   6.614 -0.0302 -0.3044 -0.0291
    1DIPC   GL1 3975  15.204   9.989   6.339  0.2392 -0.1337 -0.1119
    1DIPC   GL2 3976  15.109  10.277   6.420 -0.1678 -0.0328 -0.0873
    1DIPC   C1A 3977  14.944   9.876   5.933  0.0619 -0.0544 -0.1910
    1DIPC   D2A 3978  14.638   9.854   5.543  0.1777 -0.0424  0.2439
    1DIPC   D3A 3979  14.588   9.877   5.116 -0.1839 -0.5000  0.2237
    1DIPC   C4A 3980  14.973   9.721   4.918 -0.0240  0.2608  0.2174
    1DIPC   C1B 3981  14.863  10.340   6.051  0.0757 -0.3036  0.2928
    1DIPC   D2B 3982  14.790  10.348   5.584  0.1014  0.1732  0.1244
    1DIPC   D3B 3983  14.989  10.657   5.337  0.1770  0.0060  0.1130
    1DIPC   C4B 3984  15.185  10.693   4.854  0.2481 -0.0437  0.0307
    1DIPC   NC3 3985  21.562   3.548   6.833 -0.0931 -0.0770  0.0560
    1DIPC   PO4 3986  21.208   3.747   6.713  0.2260  0.0938 -0.0773
    1DIPC   GL1 3987  21.436   3.411   6.402  0.0250 -0.1197  0.2752
    1DIPC   GL2 3988  21.451   3.670   6.194 -0.2695  0.0432 -0.0173
    1DIPC   C1A 3989  21.331   3.211   6.024 -0.1954  0.1763 -0.3283
    1DIPC   D2A 3990  20.984   3.086   5.794 -0.1406  0.0180  0.0106
    1DIPC   D3A 3991  20.720   2.974   5.609 -0.0214 -0.1863  0.1210
    1DIPC   C4A 3992  20.665   2.588   5.335  0.0211  0.1852 -0.0986
    1DIPC   C1B 3993  21.659   3.529   5.864  0.2439 -0.1579  0.2514
    1DIPC   D2B 3994  21.723   3.450   5.381 -0.3507 -0.0077 -0.0552
    1DIPC   D3B 3995  21.376   3.345   5.101 -0.4679  0.3246 -0.1361
    1DIPC   C4B 3996  20.945   3.593   5.130  0.0997  0.0169 -0.0124
    1DIPC   NC3 3997  20.708  17.480   6.243  0.1003  0.0606 -0.1207
    1DIPC   PO4 3998  20.430  17.360   5.914  0.0419 -0.0570  0.0044
    1DIPC   GL1 3999  20.479  17.101   5.555  0.4334  0.2472  0.1618
    1DIPC   GL2 4000  20.737  16.892   5.606 -0.0620  0.0268  0.0468
    1DIPC   C1A 4001  20.296  16.821   5.191 -0.1089  0.1897 -0.1730
    1DIPC   D2A 4002  19.989  16.618   5.000 -0.3025  0.0238 -0.2701
    1DIPC   D3A 4003  19.987  16.438   4.569 -0.1282 -0.2234 -0.0490
    1DIPC   C4A 4004  20.264  16.626   4.251  0.2750  0.0435 -0.0641
    1DIPC   C1B 4005  20.804  16.651   5.319 -0.2958  0.1829 -0.1367
    1DIPC   D2B 4006  20.879  16.852   4.965 -0.0031  0.4107  0.2108
    1DIPC   D3B 4007  21.094  16.685   4.671 -0.3369  0.0311 -0.1912
    1DIPC   C4B 4008  20.876  16.702   4.376  0.5792 -0.1525 -0.1424
    1DIPC   NC3 4009  19.870   6.891   6.198  0.0809 -0.1674 -0.0622
    1DIPC   PO4 4010  19.652   6.611   6.260 -0.1746 -0.0607 -0.2174
    1DIPC   GL1 4011  19.935   6.287   6.111 -0.4505  0.0855 -0.0407
    1DIPC   GL2 4012  20.011   6.016   6.141  0.0268 -0.5123  0.1064
    1DIPC   C1A 4013  20.442   6.108   5.921  0.0113 -0.0640  0.1111
    1DIPC   D2A 4014  20.870   6.061   5.840 -0.2292 -0.0675 -0.3171
    1DIPC   D3A 4015  21.310   5.857   5.747 -0.0407 -0.0363  0.3339
    1DIPC   C4A 4016  21.353   5.587   5.375  0.0806  0.0400  0.1337
    1DIPC   C1B 4017  20.030   6.088   5.615 -0.2482 -0.1459 -0.0253
    1DIPC   D2B 4018  20.117   6.301   5.219 -0.1575  0.2149  0.1048
    1DIPC   D3B 4019  20.237   6.580   4.879 -0.0552 -0.1660 -0.1714
    1DIPC   C4B 4020  19.978   6.606   4.564 -0.4879 -0.0825 -0.1215
    1DIPC   NC3 4021  26.137  25.328   7.129 -0.2366 -0.0612  0.1947
    1DIPC   PO4 4022  26.271  25.195   6.692 -0.2074 -0.2949  0.1525
    1DIPC   GL1 4023  26.148  25.414   6.358 -0.1306 -0.1635 -0.1724
    1DIPC   GL2 4024  26.408  25.644   6.292  0.0105  0.0692  0.0828
    1DIPC   C1A 4025  26.157  25.436   5.870  0.0076 -0.0486  0.1637
    1DIPC   D2A 4026  26.450  25.463   5.518 -0.0963 -0.0169  0.1308
    1DIPC   D3A 4027  26.120  25.709   5.442 -0.1764  0.2318 -0.1097
    1DIPC   C4A 4028  26.071  26.193   5.314  0.1947 -0.1625  0.0273
    1DIPC   C1B 4029  26.483  25.887   5.955 -0.3035 -0.1412 -0.2407
    1DIPC   D2B 4030  26.457  26.087   5.570 -0.1555 -0.1665 -0.1982
    1DIPC   D3B 4031  26.778  26.021   5.488 -0.1174  0.1839 -0.0112
    1DIPC   C4B 4032  26.957  25.903   5.021  0.2125 -0.0938 -0.2247
    1DIPC   NC3 4033  26.513  24.450   6.381 -0.0745 -0.0876  0.0454
    1DIPC   PO4 4034  26.854  24.105   6.415 -0.3281  0.0651  0.0504
    1DIPC   GL1 4035  26.703  24.153   6.040 -0.0517 -0.0999  0.0534
    1DIPC   GL2 4036  26.922  24.332   5.866 -0.1242  0.3414 -0.0806
    1DIPC   C1A 4037  26.531  24.041   5.622 -0.0616  0.0342 -0.0229
    1DIPC   D2A 4038  26.603  23.955   5.259  0.1037 -0.0825 -0.1272
    1DIPC   D3A 4039  26.892  24.091   5.151 -0.3651 -0.0635  0.0862
    1DIPC   C4A 4040  26.733  24.516   4.874  0.3547 -0.0033  0.1305
    1DIPC   C1B 4041  27.082  24.025   5.590  0.2036  0.1695 -0.1593
    1DIPC   D2B 4042  27.384  23.642   5.510  0.2788  0.0144  0.1317
    1DIPC   D3B 4043  27.379  23.796   5.153 -0.2879  0.1223  0.0004
    1DIPC   C4B 4044  27.359  24.269   5.137  0.1118 -0.2486 -0.4689
    1DIPC   NC3 4045  19.440  25.637   6.764  0.1634  0.0851  0.0229
    1DIPC   PO4 4046  19.157  25.349   6.468 -0.0128  0.1960 -0.0586
    1DIPC   GL1 4047  19.189  25.233   6.056 -0.1941 -0.2295 -0.0295
    1DIPC   GL2 4048  19.319  25.490   5.922 -0.0474 -0.2595  0.4084
    1DIPC   C1A 4049  19.087  25.283   5.567  0.1263 -0.2133 -0.1016
    1DIPC   D2A 4050  18.931  25.467   5.180 -0.0177  0.0331 -0.0749
    1DIPC   D3A 4051  18.755  25.741   4.835  0.1345  0.1733 -0.2500
    1DIPC   C4A 4052  18.570  25.584   4.507 -0.1462  0.0838  0.3814
    1DIPC   C1B 4053  19.427  25.623   5.460 -0.0419  0.0883 -0.0886
    1DIPC   D2B 4054  19.579  25.579   5.048  0.1446 -0.0232 -0.2303
    1DIPC   D3B 4055  19.176  25.623   4.695 -0.0314  0.2399 -0.2645
    1DIPC   C4B 4056  19.062  25.469   4.306  0.2018  0.0376  0.1538
    1DIPC   NC3 4057  27.893  26.450   7.136  0.0437 -0.1090  0.0871
    1DIPC   PO4 4058  27.638  26.079   7.068 -0.1639 -0.0464  0.0959
    1DIPC   GL1 4059  27.729  26.263   6.590  0.0539  0.1062 -0.0758
    1DIPC   GL2 4060  27.537  26.505   6.500  0.3553  0.1226  0.0682
    1DIPC   C1A 4061  27.973  26.365   6.224 -0.0136  0.0249  0.0975
    1DIPC   D2A 4062  28.029  26.194   5.845 -0.0966  0.1317 -0.1091
    1DIPC   D3A 4063  27.784  26.164   5.401  0.2667  0.2671  0.0114
    1DIPC   C4A 4064  27.543  26.582   5.157 -0.0511  0.2436 -0.1186
    1DIPC   C1B 4065  27.537  26.876   6.280  0.0375 -0.0699 -0.0721
    1DIPC   D2B 4066  27.301  27.167   6.038  0.1504 -0.1733  0.1665
    1DIPC   D3B 4067  27.290  26.999   5.581  0.1670  0.2375 -0.0230
    1DIPC   C4B 4068  27.557  27.091   5.351  0.2961 -0.0816 -0.2596
    1DIPC   NC3 4069  14.281  29.902   6.920 -0.2298  0.0594 -0.1066
    1DIPC   PO4 4070  14.314  30.118   6.603 -0.1731 -0.0774  0.1493
    1DIPC   GL1 4071  14.294  29.968   6.249  0.0309 -0.2886  0.0124
    1DIPC   GL2 4072  14.426  29.593   6.064 -0.1140 -0.2519  0.1255
    1DIPC   C1A 4073  14.147  29.937   5.782 -0.0719 -0.1125 -0.0519
    1DIPC   D2A 4074  14.217  29.900   5.265 -0.3672  0.0993 -0.1181
    1DIPC   D3A 4075  14.000  29.467   5.235  0.1571 -0.1486 -0.1506
    1DIPC   C4A 4076  14.098  29.317   4.778 -0.3399  0.3023 -0.5030
    1DIPC   C1B 4077  14.729  29.291   6.086 -0.4688 -0.1489  0.1756
    1DIPC   D2B 4078  15.117  29.291   5.797 -0.2084 -0.2460 -0.0816
    1DIPC   D3B 4079  14.792  29.026   5.641 -0.1258  0.2541 -0.0673
    1DIPC   C4B 4080  14.830  28.606   5.376  0.1268 -0.0373 -0.0204
    1DIPC   NC3 4081  24.475  28.570   6.893 -0.1018  0.0990 -0.0137
    1DIPC   PO4 4082  24.662  28.250   6.716  0.1241 -0.2081 -0.2020
    1DIPC   GL1 4083  24.434  28.391   6.353  0.0815  0.2375  0.0602
    1DIPC   GL2 4084  24.426  28.723   6.305  0.1547 -0.0785 -0.0641
    1DIPC   C1A 4085  24.330  28.388   5.863  0.3411  0.2259 -0.2147
    1DIPC   D2A 4086  24.377  28.130   5.541  0.2535 -0.0776  0.3337
    1DIPC   D3A 4087  24.747  27.898   5.564 -0.0473  0.0729  0.2499
    1DIPC   C4A 4088  24.915  27.821   5.923  0.0868  0.0327  0.1425
    1DIPC   C1B 4089  24.524  28.830   5.847  0.2416  0.0882 -0.1433
    1DIPC   D2B 4090  24.545  28.770   5.410 -0.0096  0.1331 -0.0343
    1DIPC   D3B 4091  25.053  28.754   5.304  0.0802  0.4296  0.1517
    1DIPC   C4B 4092  25.121  28.546   4.942  0.0652  0.2083 -0.1949
    1DIPC   NC3 4093  17.033  28.533   6.799  0.2268  0.1501 -0.0598
    1DIPC   PO4 4094  17.398  28.637   7.091  0.2076  0.1227 -0.0820
    1DIPC   GL1 4095  17.482  28.602   6.662  0.1130  0.1944  0.0995
    1DIPC   GL2 4096  17.676  28.878   6.511  0.0004 -0.1206  0.2085
    1DIPC   C1A 4097  17.582  28.251   6.374 -0.0969 -0.0813  0.0150
    1DIPC   D2A 4098  17.547  28.040   5.979 -0.2701  0.0016 -0.1725
    1DIPC   D3A 4099  17.260  27.850   6.190 -0.0884  0.2312 -0.0609
    1DIPC   C4A 4100  16.946  27.698   5.923 -0.0402  0.2772  0.1798
    1DIPC   C1B 4101  18.043  28.743   6.230 -0.1300  0.0473  0.0950
    1DIPC   D2B 4102  18.301  28.727   5.769 -0.2076 -0.2855 -0.3258
    1DIPC   D3B 4103  18.626  28.483   5.472  0.1569 -0.2882  0.1223
    1DIPC   C4B 4104  18.942  28.697   5.194 -0.1288 -0.1721  0.0742
    1DIPC   NC3 4105   9.640  24.265   6.415  0.2996 -0.3087 -0.0267
    1DIPC   PO4 4106   9.113  24.292   6.260 -0.2085  0.1744 -0.2760
    1DIPC   GL1 4107   9.031  24.407   5.851  0.0460  0.0354  0.1141
    1DIPC   GL2 4108   8.708  24.305   5.789  0.1055  0.3989 -0.2340
    1DIPC   C1A 4109   9.302  24.428   5.522 -0.0987  0.2862 -0.3195
    1DIPC   D2A 4110   9.549  24.691   5.374 -0.0062  0.0187  0.1494
    1DIPC   D3A 4111   9.795  24.803   5.097 -0.1375  0.2173 -0.0548
    1DIPC   C4A 4112  10.314  24.847   5.270 -0.2687 -0.0908 -0.2354
    1DIPC   C1B 4113   8.766  24.535   5.466 -0.3352  0.2876 -0.0735
    1DIPC   D2B 4114   9.006  24.806   5.329  0.0257 -0.1260 -0.0569
    1DIPC   D3B 4115   8.859  25.075   5.054 -0.1396  0.2753  0.3054
    1DIPC   C4B 4116   8.442  25.241   4.969 -0.0929  0.0338 -0.0924
    1DIPC   NC3 4117  17.818   9.674   5.924  0.1266 -0.1131 -0.2070
    1DIPC   PO4 4118  18.192   9.955   6.094  0.1690 -0.0198 -0.0455
    1DIPC   GL1 4119  18.052  10.124   5.761  0.0470  0.0388 -0.2634
    1DIPC   GL2 4120  18.203  10.391   5.735  0.0264  0.1080  0.0889
    1DIPC   C1A 4121  17.914   9.996   5.366 -0.0895 -0.0617  0.0919
    1DIPC   D2A 4122  18.052  10.044   4.955 -0.0565 -0.4385  0.1830
    1DIPC   D3A 4123  17.713  10.014   4.803  0.1753  0.4073 -0.1468
    1DIPC   C4A 4124  17.247  10.004   4.913 -0.0215 -0.4498 -0.1528
    1DIPC   C1B 4125  18.211  10.390   5.323  0.1897  0.1282 -0.0874
    1DIPC   D2B 4126  18.364  10.506   4.916  0.0285  0.2143 -0.1689
    1DIPC   D3B 4127  17.832  10.550   4.906 -0.1784 -0.0974 -0.1859
    1DIPC   C4B 4128  17.524  10.288   5.196 -0.0595 -0.2377  0.0745
    1DIPC   NC3 4129  20.926  16.552   6.358  0.0769 -0.1166 -0.0145
    1DIPC   PO4 4130  21.007  16.915   6.060 -0.1941  0.0256  0.0358
    1DIPC   GL1 4131  21.195  16.761   5.638  0.3231 -0.0872  0.3483
    1DIPC   GL2 4132  21.439  16.512   5.648  0.2985 -0.3206 -0.0677
    1DIPC   C1A 4133  21.232  17.158   5.307  0.1157  0.1510 -0.1265
    1DIPC   D2A 4134  21.173  17.245   4.810 -0.1229  0.1961  0.1481
    1DIPC   D3A 4135  20.841  17.178   4.607  0.2246 -0.1864 -0.0728
    1DIPC   C4A 4136  20.892  17.426   4.227 -0.0162  0.2348  0.0895
    1DIPC   C1B 4137  21.515  16.279   5.305 -0.3477  0.0861  0.0780
    1DIPC   D2B 4138  21.492  16.099   4.895 -0.0433  0.1381  0.0827
    1DIPC   D3B 4139  21.825  15.964   4.620  0.2317 -0.1292 -0.1111
    1DIPC   C4B 4140  21.801  15.820   4.122 -0.0022  0.0983 -0.3798
    1DIPC   NC3 4141   7.131  23.834   6.492  0.0422  0.4211 -0.1498
    1DIPC   PO4 4142   7.281  23.467   6.542 -0.1220 -0.2781  0.1778
    1DIPC   GL1 4143   7.305  23.684   6.045  0.3663 -0.0467  0.0090
    1DIPC   GL2 4144   7.066  23.803   5.845  0.1594  0.1999  0.0175
    1DIPC   C1A 4145   7.475  23.514   5.597 -0.0010 -0.0469  0.2801
    1DIPC   D2A 4146   7.826  23.295   5.435  0.3003 -0.3967 -0.0564
    1DIPC   D3A 4147   7.842  23.610   5.139 -0.0384 -0.2181  0.2634
    1DIPC   C4A 4148   7.533  23.878   5.145 -0.1588  0.0366 -0.1592
    1DIPC   C1B 4149   7.006  23.926   5.466 -0.1683  0.0371 -0.0459
    1DIPC   D2B 4150   7.041  23.826   5.000  0.0813  0.1225 -0.3082
    1DIPC   D3B 4151   6.844  24.074   4.758 -0.3765  0.1921  0.1176
    1DIPC   C4B 4152   6.996  24.217   4.396 -0.1075  0.1751  0.0772
    1DIPC   NC3 4153  27.872  27.230   7.013 -0.1101  0.0749  0.1153
    1DIPC   PO4 4154  28.304  27.189   6.845  0.1902 -0.1213 -0.2900
    1DIPC   GL1 4155  28.278  27.195   6.488 -0.1852 -0.0175  0.2048
    1DIPC   GL2 4156  28.497  27.084   6.242  0.0273  0.0032  0.2272
    1DIPC   C1A 4157  28.267  27.513   6.147  0.0459  0.1550 -0.0864
    1DIPC   D2A 4158  28.267  27.636   5.748 -0.0798 -0.0142  0.1447
    1DIPC   D3A 4159  28.231  27.990   5.996 -0.0527  0.2032  0.0404
    1DIPC   C4A 4160  28.486  27.984   6.471  0.1032 -0.1614 -0.0540
    1DIPC   C1B 4161  28.647  27.264   5.900 -0.4238 -0.2550  0.0441
    1DIPC   D2B 4162  28.785  27.380   5.482 -0.2222 -0.2708 -0.0504
    1DIPC   D3B 4163  28.539  27.041   5.344 -0.2712 -0.1106 -0.2179
    1DIPC   C4B 4164  28.390  27.100   4.998  0.1641  0.0748  0.0038
    1DIPC   NC3 4165  29.555  26.071   7.417  0.0267 -0.0320  0.0294
    1DIPC   PO4 4166  29.562  26.095   7.032 -0.3408 -0.0401  0.2703
    1DIPC   GL1 4167  29.682  25.869   6.559  0.3934  0.1111  0.1233
    1DIPC   GL2 4168  29.959  25.699   6.448  0.3721  0.0640 -0.1284
    1DIPC   C1A 4169  29.563  26.085   6.166 -0.0801  0.0306 -0.3887
    1DIPC   D2A 4170  29.601  26.275   5.768 -0.0677  0.3861 -0.0944
    1DIPC   D3A 4171  30.090  26.383   5.624  0.0887  0.1354 -0.0205
    1DIPC   C4A 4172  30.313  26.410   5.302  0.0243  0.0942  0.1046
    1DIPC   C1B 4173  30.141  25.624   6.043  0.1028 -0.1366  0.0070
    1DIPC   D2B 4174  29.978  25.819   5.682 -0.1761 -0.1669  0.1469
    1DIPC   D3B 4175  30.037  25.999   5.294  0.0662  0.2205 -0.0621
    1DIPC   C4B 4176  29.649  26.223   5.236  0.2282  0.1179 -0.0514
    1DIPC   NC3 4177  27.227  29.388   7.907  0.2522 -0.1047 -0.1742
    1DIPC   PO4 4178  27.666  29.400   7.644 -0.1671  0.0208 -0.0136
    1DIPC   GL1 4179  27.468  29.680   7.274  0.0111  0.2186  0.1395
    1DIPC   GL2 4180  27.673  29.514   7.121 -0.0431  0.1055  0.1332
    1DIPC   C1A 4181  27.205  29.756   7.007  0.2437  0.1349 -0.1230
    1DIPC   D2A 4182  26.942  29.971   6.759  0.0849 -0.1910  0.2319
    1DIPC   D3A 4183  27.324  29.988   6.607 -0.2276 -0.2949  0.1228
    1DIPC   C4A 4184  27.395  30.066   6.161 -0.0583  0.4080  0.1259
    1DIPC   C1B 4185  27.498  29.456   6.748  0.1126  0.1813 -0.0644
    1DIPC   D2B 4186  27.158  29.485   6.512  0.1867  0.1218  0.1005
    1DIPC   D3B 4187  27.497  29.603   6.250  0.1379 -0.0757  0.1846
    1DIPC   C4B 4188  27.570  29.565   5.777 -0.0030 -0.0260  0.3006
    1DIPC   NC3 4189  18.602   9.849   6.345  0.0731  0.0887  0.0037
    1DIPC   PO4 4190  18.871   9.941   6.069 -0.2571 -0.0089  0.0252
    1DIPC   GL1 4191  18.571  10.013   5.570 -0.0049 -0.1524 -0.0676
    1DIPC   GL2 4192  18.360   9.725   5.596 -0.0758 -0.1652  0.1665
    1DIPC   C1A 4193  18.466   9.967   5.140 -0.1020 -0.1199  0.0473
    1DIPC   D2A 4194  18.511  10.006   4.723  0.2339  0.0407  0.1976
    1DIPC   D3A 4195  18.111  10.248   4.527 -0.1859 -0.0536 -0.1214
    1DIPC   C4A 4196  17.645  10.189   4.312 -0.2112 -0.0260 -0.1239
    1DIPC   C1B 4197  18.194   9.535   5.163  0.0055 -0.0297  0.0818
    1DIPC   D2B 4198  18.311   9.524   4.765  0.2990 -0.1469  0.2035
    1DIPC   D3B 4199  18.514   9.166   4.555  0.2668 -0.3403  0.0800
    1DIPC   C4B 4200  18.413   9.139   4.156  0.1354 -0.0969  0.0083
    1DIPC   NC3 4201  20.489   5.160   6.587  0.0820 -0.3597  0.2027
    1DIPC   PO4 4202  20.393   5.599   6.694 -0.2224  0.1511 -0.0901
    1DIPC   GL1 4203  20.458   5.747   6.292  0.0808  0.0984 -0.0770
    1DIPC   GL2 4204  20.255   5.554   6.126 -0.2643 -0.2384  0.2457
    1DIPC   C1A 4205  20.671   5.634   5.880 -0.0390  0.1020  0.0783
    1DIPC   D2A 4206  20.989   5.510   5.752 -0.1663 -0.2357 -0.1502
    1DIPC   D3A 4207  20.785   5.432   5.378  0.1225  0.1392 -0.0318
    1DIPC   C4A 4208  21.026   5.200   5.060  0.2075 -0.1941  0.1851
    1DIPC   C1B 4209  20.217   5.583   5.743 -0.2942  0.1129 -0.1442
    1DIPC   D2B 4210  20.234   5.286   5.426  0.0481  0.4176  0.0477
    1DIPC   D3B 4211  20.418   5.369   5.014  0.0998  0.0533  0.3784
    1DIPC   C4B 4212  20.171   5.600   4.681  0.1267 -0.0210 -0.2531
    1DIPC   NC3 4213  21.559   6.603   6.561  0.2462  0.4650  0.0735
    1DIPC   PO4 4214  21.897   6.497   6.338  0.0252 -0.2515 -0.0974
    1DIPC   GL1 4215  21.777   6.783   5.872  0.3627  0.2755  0.1786
    1DIPC   GL2 4216  21.805   7.136   5.901  0.1566  0.3763 -0.0083
    1DIPC   C1A 4217  22.105   6.795   5.522  0.2718  0.1218 -0.2589
    1DIPC   D2A 4218  22.429   6.575   5.409 -0.2284  0.1042  0.0291
    1DIPC   D3A 4219  22.103   6.309   5.460 -0.0903  0.3048 -0.0774
    1DIPC   C4A 4220  21.927   6.116   5.033  0.2560 -0.2331  0.1187
    1DIPC   C1B 4221  21.698   7.069   5.372 -0.3637 -0.1105 -0.2962
    1DIPC   D2B 4222  21.732   6.575   5.251 -0.0611  0.0308  0.1128
    1DIPC   D3B 4223  21.445   6.128   5.035  0.2192  0.1176 -0.1548
    1DIPC   C4B 4224  21.584   5.916   4.676 -0.0938 -0.0811  0.1493
    1DIPC   NC3 4225  18.067  24.150   6.326  0.4648  0.2971 -0.0004
    1DIPC   PO4 4226  18.297  24.478   6.103 -0.2215 -0.0256  0.0798
    1DIPC   GL1 4227  18.147  24.538   5.668  0.0086  0.2580 -0.1561
    1DIPC   GL2 4228  18.375  24.342   5.395  0.6026 -0.1182  0.3514
    1DIPC   C1A 4229  17.806  24.586   5.301  0.2330 -0.0556  0.0957
    1DIPC   D2A 4230  17.581  24.832   4.918  0.1553 -0.1753  0.2219
    1DIPC   D3A 4231  17.427  24.650   4.582 -0.3530  0.0425 -0.0815
    1DIPC   C4A 4232  17.572  24.583   4.198  0.1221 -0.0173 -0.0323
    1DIPC   C1B 4233  18.103  24.494   4.938 -0.0991  0.0362 -0.4422
    1DIPC   D2B 4234  17.898  24.489   4.535 -0.2602 -0.1301  0.0948
    1DIPC   D3B 4235  17.684  24.276   4.849 -0.2373  0.0361  0.1307
    1DIPC   C4B 4236  17.536  23.860   4.852 -0.3912 -0.1025  0.1599
    1DIPC   NC3 4237  18.193   3.399   6.577  0.1894  0.0611  0.2882
    1DIPC   PO4 4238  18.254   3.544   6.168  0.3028  0.0325 -0.1116
    1DIPC   GL1 4239  18.310   3.402   5.740  0.1585  0.4683  0.0661
    1DIPC   GL2 4240  18.293   3.029   5.807 -0.1236 -0.6045  0.0696
    1DIPC   C1A 4241  18.250   3.408   5.222  0.0561 -0.0721 -0.0878
    1DIPC   D2A 4242  18.329   3.729   5.072  0.1789  0.1219  0.1827
    1DIPC   D3A 4243  18.515   3.586   4.788 -0.0869  0.0876 -0.0870
    1DIPC   C4A 4244  18.136   3.336   4.670  0.0265 -0.1071  0.2712
    1DIPC   C1B 4245  18.141   2.900   5.437 -0.0162 -0.1487  0.0212
    1DIPC   D2B 4246  17.582   2.755   5.443 -0.1883 -0.0938 -0.0397
    1DIPC   D3B 4247  17.634   3.084   5.171 -0.3632 -0.1164  0.0825
    1DIPC   C4B 4248  17.307   3.333   4.992  0.1266 -0.1226  0.0688
    1DIPC   NC3 4249  10.474   2.568   6.745  0.0775  0.0910  0.1337
    1DIPC   PO4 4250  10.191   2.877   6.528 -0.0049  0.0905 -0.1218
    1DIPC   GL1 4251  10.146   2.799   6.075 -0.1267  0.2290 -0.0665
    1DIPC   GL2 4252   9.873   2.574   6.026  0.0948 -0.0789  0.2641
    1DIPC   C1A 4253  10.081   2.848   5.617 -0.1262  0.1760 -0.1396
    1DIPC   D2A 4254  10.079   2.593   5.435 -0.0422  0.5840  0.0670
    1DIPC   D3A 4255   9.927   2.406   5.051 -0.1991 -0.2279  0.2419
    1DIPC   C4A 4256  10.273   2.314   4.802 -0.0866 -0.2709  0.2876
    1DIPC   C1B 4257   9.598   2.566   5.655 -0.1634 -0.2893  0.2497
    1DIPC   D2B 4258   9.475   2.452   5.299 -0.2942 -0.1726 -0.4241
    1DIPC   D3B 4259   9.158   2.393   5.047  0.1660 -0.0978  0.1308
    1DIPC   C4B 4260   9.314   2.368   4.607  0.0603  0.1336 -0.0789
    1DIPC   NC3 4261  26.955   1.290   7.257 -0.1694  0.2121 -0.1809
    1DIPC   PO4 4262  26.857   0.925   7.276 -0.5216 -0.1265  0.0357
    1DIPC   GL1 4263  26.755   0.573   6.883 -0.2898  0.0469  0.0550
    1DIPC   GL2 4264  26.697   0.635   6.647  0.0510 -0.0201  0.0770
    1DIPC   C1A 4265  26.890   0.193   6.703  0.3771 -0.0042 -0.2765
    1DIPC   D2A 4266  27.224   0.136   6.459 -0.0703  0.1468 -0.0963
    1DIPC   D3A 4267  27.221   0.152   6.018 -0.6827 -0.3978 -0.1132
    1DIPC   C4A 4268  27.540   0.113   5.667 -0.3375 -0.0677  0.0249
    1DIPC   C1B 4269  26.734   0.404   6.235 -0.2988 -0.2958 -0.1797
    1DIPC   D2B 4270  26.740   0.230   5.799 -0.1887 -0.3161  0.1971
    1DIPC   D3B 4271  26.997   0.601   5.628 -0.0411 -0.2021 -0.0740
    1DIPC   C4B 4272  27.254   0.656   5.328  0.0324  0.2403  0.0300
    1DIPC   NC3 4273  15.262  18.982   6.064 -0.2950 -0.1726  0.1659
    1DIPC   PO4 4274  15.094  18.458   6.096  0.0425  0.1088 -0.1429
    1DIPC   GL1 4275  15.106  18.240   5.604 -0.1304 -0.0374  0.1015
    1DIPC   GL2 4276  14.953  17.941   5.684  0.1113  0.0099  0.2498
    1DIPC   C1A 4277  15.159  18.315   5.170  0.0547 -0.0495 -0.0690
    1DIPC   D2A 4278  15.307  18.160   4.868  0.1001  0.1196  0.0445
    1DIPC   D3A 4279  15.129  17.840   4.901  0.0076  0.0722 -0.1580
    1DIPC   C4A 4280  15.216  17.421   4.777 -0.1772  0.0927  0.1917
    1DIPC   C1B 4281  14.749  17.980   5.267  0.0254  0.0077  0.1290
    1DIPC   D2B 4282  14.582  17.760   4.936  0.2191 -0.3786 -0.1345
    1DIPC   D3B 4283  14.724  17.191   4.908  0.2681 -0.0704  0.3286
    1DIPC   C4B 4284  15.120  16.957   4.993 -0.1098 -0.0861 -0.0256
    1DIPC   NC3 4285   7.052   1.700   7.625  0.1364  0.1517  0.1030
    1DIPC   PO4 4286   6.720   1.864   7.486 -0.2461 -0.0946  0.1049
    1DIPC   GL1 4287   6.925   1.850   7.070 -0.0234 -0.1200 -0.2262
    1DIPC   GL2 4288   7.194   1.642   7.109  0.0040 -0.1133  0.0878
    1DIPC   C1A 4289   6.855   1.969   6.731  0.0758  0.1628  0.1797
    1DIPC   D2A 4290   6.827   1.779   6.385  0.2149  0.0894 -0.0080
    1DIPC   D3A 4291   7.251   1.780   6.371  0.0183 -0.2787  0.2301
    1DIPC   C4A 4292   7.384   1.941   6.726 -0.0601 -0.3017  0.0027
    1DIPC   C1B 4293   6.927   1.429   6.786 -0.0625 -0.0211 -0.0030
    1DIPC   D2B 4294   6.980   1.123   6.469 -0.0604 -0.1027 -0.2149
    1DIPC   D3B 4295   6.627   0.998   6.589  0.1829 -0.0422 -0.2418
    1DIPC   C4B 4296   6.412   0.633   6.828  0.2267  0.1491 -0.0630
    1DIPC   NC3 4297  25.145  29.646   7.136 -0.0011  0.4554  0.3410
    1DIPC   PO4 4298  25.101  30.067   6.927 -0.0109  0.0489 -0.2089
    1DIPC   GL1 4299  25.296  29.830   6.633 -0.5008  0.0474  0.4282
    1DIPC   GL2 4300  25.474  29.560   6.753  0.0996  0.1085  0.2965
    1DIPC   C1A 4301  25.486  29.886   6.146 -0.0042 -0.2497 -0.0965
    1DIPC   D2A 4302  25.607  29.739   5.798  0.3886 -0.1670  0.0115
    1DIPC   D3A 4303  25.448  30.115   5.585  0.0942  0.0371  0.0387
    1DIPC   C4A 4304  25.087  30.189   5.397  0.1485  0.0825 -0.0854
    1DIPC   C1B 4305  25.198  29.270   6.465 -0.1332 -0.1711  0.0536
    1DIPC   D2B 4306  24.833  29.110   6.208  0.2095  0.1355  0.1138
    1DIPC   D3B 4307  24.801  29.493   5.913 -0.0542  0.1706 -0.0079
    1DIPC   C4B 4308  24.422  29.460   5.649  0.3359 -0.0228 -0.0594
    1DIPC   NC3 4309  24.592  29.372   7.389 -0.0641 -0.0505  0.2566
    1DIPC   PO4 4310  24.756  29.355   7.076 -0.0232  0.0491 -0.0373
    1DIPC   GL1 4311  24.857  29.626   6.728  0.1020 -0.0784 -0.0225
    1DIPC   GL2 4312  24.618  29.534   6.454 -0.0824  0.1826 -0.0461
    1DIPC   C1A 4313  24.982  29.781   6.259  0.0481  0.1690 -0.1005
    1DIPC   D2A 4314  25.074  29.966   5.863  0.0367 -0.3189  0.0180
    1DIPC   D3A 4315  25.180  29.660   5.494 -0.3026 -0.0743 -0.1825
    1DIPC   C4A 4316  25.312  29.249   5.433  0.1315  0.0375  0.0766
    1DIPC   C1B 4317  24.281  29.276   6.192 -0.0868  0.0343  0.1277
    1DIPC   D2B 4318  23.872  29.259   6.019  0.0272  0.1299 -0.2067
    1DIPC   D3B 4319  23.960  28.849   5.845 -0.0489  0.1129 -0.1014
    1DIPC   C4B 4320  23.912  28.543   6.145 -0.1891 -0.0174 -0.0859
    1DIPC   NC3 4321  23.865   4.614   7.156  0.1108  0.4082  0.1979
    1DIPC   PO4 4322  23.824   4.188   7.224 -0.1532  0.1512 -0.0895
    1DIPC   GL1 4323  23.761   4.201   6.851  0.1594  0.1235  0.2925
    1DIPC   GL2 4324  23.592   4.495   6.671 -0.2393 -0.2805  0.1654
    1DIPC   C1A 4325  23.554   3.852   6.441 -0.2895 -0.0859  0.0415
    1DIPC   D2A 4326  23.175   3.857   6.288 -0.0126 -0.1432 -0.0324
    1DIPC   D3A 4327  23.210   3.637   5.849 -0.0095  0.3317  0.0965
    1DIPC   C4A 4328  23.075   3.638   5.402 -0.2050 -0.3257 -0.0647
    1DIPC   C1B 4329  23.122   4.478   6.321 -0.1096 -0.0453  0.1183
    1DIPC   D2B 4330  22.978   4.237   6.023  0.1545 -0.0129 -0.4397
    1DIPC   D3B 4331  22.904   4.563   5.892 -0.1095  0.0570  0.2429
    1DIPC   C4B 4332  23.277   4.560   5.609  0.2341 -0.3006  0.0597
    1DIPC   NC3 4333   7.223   8.663   6.961 -0.0521 -0.0866  0.4911
    1DIPC   PO4 4334   7.477   8.315   6.941  0.0456 -0.1168 -0.3781
    1DIPC   GL1 4335   7.724   8.316   6.580  0.1842  0.0629  0.0232
    1DIPC   GL2 4336   7.451   8.292   6.312 -0.1668  0.2599  0.0072
    1DIPC   C1A 4337   7.745   7.922   6.356 -0.0896  0.2410  0.1063
    1DIPC   D2A 4338   7.489   7.791   6.067  0.3103 -0.0067  0.1246
    1DIPC   D3A 4339   7.631   7.874   5.746  0.0711 -0.0480 -0.0658
    1DIPC   C4A 4340   8.029   7.866   5.887 -0.0791  0.0277  0.1523
    1DIPC   C1B 4341   7.360   8.267   5.944  0.2523 -0.1557  0.1079
    1DIPC   D2B 4342   7.278   8.166   5.500  0.0000 -0.0648 -0.0441
    1DIPC   D3B 4343   7.644   7.987   5.255 -0.0017  0.0843  0.3080
    1DIPC   C4B 4344   7.432   7.896   4.853 -0.0979  0.0169  0.2239
    1DIPC   NC3 4345  22.201  15.342   5.898 -0.1648  0.1572 -0.0748
    1DIPC   PO4 4346  22.496  14.897   5.896  0.4772 -0.2822 -0.1438
    1DIPC   GL1 4347  22.309  15.002   5.459  0.0056 -0.2552 -0.0203
    1DIPC   GL2 4348  22.426  15.310   5.443 -0.2389 -0.1731  0.3958
    1DIPC   C1A 4349  22.378  15.046   4.985 -0.1351  0.2361 -0.2867
    1DIPC   D2A 4350  22.125  15.120   4.514  0.7232  0.2252 -0.1700
    1DIPC   D3A 4351  21.959  15.496   4.450  0.0403 -0.0821 -0.3446
    1DIPC   C4A 4352  22.261  15.885   4.396 -0.4130 -0.1722  0.0440
    1DIPC   C1B 4353  22.330  15.571   5.119  0.2909 -0.2587 -0.1376
    1DIPC   D2B 4354  21.961  15.593   4.948 -0.0802 -0.2632  0.0324
    1DIPC   D3B 4355  21.853  15.180   5.054  0.2694 -0.1926 -0.0884
    1DIPC   C4B 4356  21.934  14.790   5.099 -0.0570 -0.0664 -0.4095
    1DIPC   NC3 4357   3.906   3.642   6.933 -0.2187 -0.0258  0.0135
    1DIPC   PO4 4358   4.398   3.615   6.928 -0.0807 -0.1118 -0.0805
    1DIPC   GL1 4359   4.512   3.733   6.541  0.1314  0.1434 -0.2066
    1DIPC   GL2 4360   4.821   3.759   6.478  0.0727  0.2163 -0.1442
    1DIPC   C1A 4361   4.342   3.883   6.230  0.0144  0.0290 -0.3114
    1DIPC   D2A 4362   3.927   3.873   6.070  0.1637 -0.3736  0.1160
    1DIPC   D3A 4363   3.821   4.292   6.167  0.2115 -0.0301  0.0203
    1DIPC   C4A 4364   3.423   4.553   6.233 -0.1483  0.0355  0.2081
    1DIPC   C1B 4365   5.030   3.962   6.134  0.2053  0.0022 -0.2621
    1DIPC   D2B 4366   4.917   4.197   5.749 -0.0566  0.3791 -0.1205
    1DIPC   D3B 4367   5.177   3.808   5.638  0.0467 -0.0212 -0.2492
    1DIPC   C4B 4368   5.300   3.876   5.255 -0.0358 -0.3323 -0.0974
    1DIPC   NC3 4369  13.079  18.443   5.955 -0.2602  0.0146 -0.2355
    1DIPC   PO4 4370  13.327  18.781   5.741 -0.3337 -0.2997 -0.0406
    1DIPC   GL1 4371  13.108  18.647   5.453 -0.1614 -0.1349  0.0535
    1DIPC   GL2 4372  13.162  18.930   5.193  0.1569  0.0704  0.0847
    1DIPC   C1A 4373  13.315  18.441   5.089  0.3310 -0.4056 -0.0999
    1DIPC   D2A 4374  13.240  18.488   4.728  0.2342 -0.0963 -0.0930
    1DIPC   D3A 4375  13.306  18.877   4.578 -0.0770 -0.3141  0.4368
    1DIPC   C4A 4376  13.076  19.218   4.354  0.1506 -0.1056 -0.0255
    1DIPC   C1B 4377  13.557  18.871   5.008  0.0646 -0.1600  0.2330
    1DIPC   D2B 4378  13.838  18.866   4.766 -0.1143 -0.1524 -0.1185
    1DIPC   D3B 4379  13.678  18.530   4.535 -0.0347  0.1082  0.2762
    1DIPC   C4B 4380  13.846  18.314   4.218  0.3385 -0.0510  0.0072
    1DIPC   NC3 4381  24.167  14.985   6.252  0.2157  0.2943 -0.1209
    1DIPC   PO4 4382  23.811  14.908   5.962  0.2763  0.1233  0.0283
    1DIPC   GL1 4383  23.691  14.895   5.499 -0.0187  0.0341 -0.1849
    1DIPC   GL2 4384  23.344  14.894   5.423  0.0040  0.0299  0.4965
    1DIPC   C1A 4385  23.703  15.063   5.054  0.3854  0.1061 -0.1753
    1DIPC   D2A 4386  23.732  15.186   4.680  0.0271  0.1684 -0.1713
    1DIPC   D3A 4387  24.161  14.965   4.638  0.0183 -0.0753 -0.1995
    1DIPC   C4A 4388  24.297  14.794   4.317  0.0067  0.2927 -0.1030
    1DIPC   C1B 4389  23.573  14.576   5.122 -0.0870 -0.1647  0.4409
    1DIPC   D2B 4390  23.479  14.326   4.742 -0.0329 -0.0139  0.0344
    1DIPC   D3B 4391  23.164  14.409   4.431 -0.1258 -0.1281 -0.2519
    1DIPC   C4B 4392  23.104  14.758   4.158 -0.0209 -0.0659  0.2971
    1DIPC   NC3 4393  20.733  25.720   6.291 -0.0609 -0.2318 -0.0431
    1DIPC   PO4 4394  21.183  25.707   6.208  0.2271  0.2671  0.0375
    1DIPC   GL1 4395  21.347  25.465   5.895  0.0618 -0.1982 -0.2443
    1DIPC   GL2 4396  21.664  25.640   5.690 -0.2543 -0.0883 -0.2624
    1DIPC   C1A 4397  21.356  25.271   5.426 -0.2478 -0.1075 -0.1466
    1DIPC   D2A 4398  21.100  25.260   5.152  0.1384 -0.1771  0.2193
    1DIPC   D3A 4399  21.482  25.131   4.869  0.1873  0.0099  0.1215
    1DIPC   C4A 4400  21.703  24.692   4.776  0.3709 -0.2630  0.0595
    1DIPC   C1B 4401  21.799  25.922   5.686 -0.4000  0.1526  0.0679
    1DIPC   D2B 4402  21.911  26.159   5.329  0.1679 -0.1133  0.1769
    1DIPC   D3B 4403  21.791  26.382   4.986  0.2304  0.3194 -0.4875
    1DIPC   C4B 4404  21.706  26.813   5.165  0.0880 -0.2632 -0.0547
    1DIPC   NC3 4405  16.603  14.659   6.862 -0.0006  0.1311  0.2868
    1DIPC   PO4 4406  16.601  14.219   6.997 -0.0101  0.2425  0.1970
    1DIPC   GL1 4407  16.547  14.212   6.557 -0.1409 -0.1546  0.1328
    1DIPC   GL2 4408  16.490  14.478   6.356  0.2994 -0.4272  0.1916
    1DIPC   C1A 4409  16.287  14.207   6.067 -0.2626 -0.1733 -0.0648
    1DIPC   D2A 4410  16.038  14.255   5.726 -0.4420  0.0960  0.3250
    1DIPC   D3A 4411  16.009  14.734   5.788 -0.0716 -0.0869 -0.1208
    1DIPC   C4A 4412  15.846  14.791   5.402  0.0285 -0.1537  0.1895
    1DIPC   C1B 4413  16.682  14.488   5.939 -0.0719 -0.2124  0.1185
    1DIPC   D2B 4414  16.485  14.859   5.751 -0.0468 -0.0563 -0.2089
    1DIPC   D3B 4415  16.719  15.127   5.917 -0.0584 -0.0553 -0.0310
    1DIPC   C4B 4416  16.708  15.617   5.879  0.0325  0.1375  0.0059
    1DIPC   NC3 4417  28.643   4.551   7.094  0.2136 -0.1069  0.2134
    1DIPC   PO4 4418  29.186   4.533   7.157 -0.0432 -0.1225  0.0036
    1DIPC   GL1 4419  29.247   4.413   6.631  0.1086 -0.0797 -0.1543
    1DIPC   GL2 4420  29.385   4.624   6.340 -0.0423 -0.0765  0.0757
    1DIPC   C1A 4421  29.117   4.264   6.186  0.0100  0.0196 -0.1569
    1DIPC   D2A 4422  29.206   4.183   5.777 -0.1324 -0.2748  0.1174
    1DIPC   D3A 4423  28.865   4.286   5.561 -0.0455  0.2024 -0.3153
    1DIPC   C4A 4424  28.554   3.901   5.540  0.2172 -0.0347  0.1103
    1DIPC   C1B 4425  29.589   4.260   6.141  0.1977  0.1769 -0.3399
    1DIPC   D2B 4426  29.752   4.139   5.754 -0.1582  0.1265  0.1704
    1DIPC   D3B 4427  29.729   3.893   5.380  0.2045 -0.1206  0.1646
    1DIPC   C4B 4428  29.761   3.454   5.351  0.2329  0.0144  0.1201
    1DIPC   NC3 4429  26.929   2.798   7.292  0.2016 -0.1407 -0.1762
    1DIPC   PO4 4430  26.475   2.832   7.248  0.0440  0.1724 -0.0206
    1DIPC   GL1 4431  26.622   2.934   6.828 -0.0685 -0.1661 -0.2173
    1DIPC   GL2 4432  26.337   3.005   6.644  0.1941  0.0156 -0.0636
    1DIPC   C1A 4433  26.771   3.209   6.633  0.0106 -0.0156  0.0890
    1DIPC   D2A 4434  26.550   3.606   6.431  0.2372 -0.0065  0.1271
    1DIPC   D3A 4435  27.045   3.774   6.285  0.0474  0.0382 -0.0067
    1DIPC   C4A 4436  27.392   3.667   6.601  0.0047  0.1394  0.3347
    1DIPC   C1B 4437  26.537   3.068   6.253 -0.1301  0.1943 -0.2212
    1DIPC   D2B 4438  26.750   3.371   5.996 -0.1696 -0.0631 -0.1689
    1DIPC   D3B 4439  26.735   3.112   5.652 -0.0748  0.2178 -0.0642
    1DIPC   C4B 4440  26.945   3.407   5.428 -0.0397  0.1945  0.1814
    1DIPC   NC3 4441   9.871  20.563   6.263  0.0727  0.1867  0.1640
    1DIPC   PO4 4442   9.922  20.204   5.934  0.0656 -0.0988  0.0342
    1DIPC   GL1 4443  10.032  20.112   5.547 -0.0481 -0.2328 -0.2429
    1DIPC   GL2 4444  10.350  20.314   5.579  0.3041 -0.0364 -0.0128
    1DIPC   C1A 4445  10.253  19.807   5.414  0.0335 -0.1394 -0.1315
    1DIPC   D2A 4446  10.433  19.483   5.240 -0.1468 -0.3837  0.1869
    1DIPC   D3A 4447  10.845  19.475   4.972 -0.0000  0.0757 -0.1671
    1DIPC   C4A 4448  11.029  19.989   4.854 -0.2293  0.0278  0.0544
    1DIPC   C1B 4449  10.509  20.559   5.172  0.0939 -0.0575 -0.0657
    1DIPC   D2B 4450  10.219  20.676   4.862 -0.1392 -0.0194  0.2083
    1DIPC   D3B 4451  10.560  20.761   4.650  0.0945  0.2629 -0.0166
    1DIPC   C4B 4452  10.317  20.564   4.317  0.3090 -0.0322 -0.0172
    1DIPC   NC3 4453  11.280  22.973   6.151  0.2807 -0.0516 -0.2338
    1DIPC   PO4 4454  11.044  23.350   6.060 -0.0899 -0.2890 -0.0707
    1DIPC   GL1 4455  11.111  23.470   5.692 -0.2681  0.0997  0.3549
    1DIPC   GL2 4456  10.999  23.759   5.527  0.0329 -0.0463  0.0584
    1DIPC   C1A 4457  11.360  23.404   5.333  0.2170  0.2161 -0.0944
    1DIPC   D2A 4458  11.190  23.153   5.011  0.0580 -0.1476  0.2605
    1DIPC   D3A 4459  10.892  22.820   5.126  0.3649  0.4226 -0.0388
    1DIPC   C4A 4460  10.919  22.434   5.073 -0.0266  0.0536  0.4287
    1DIPC   C1B 4461  10.946  24.165   5.282  0.0511 -0.2060 -0.1639
    1DIPC   D2B 4462  10.773  24.420   4.891 -0.0203 -0.0289  0.0170
    1DIPC   D3B 4463  10.876  24.419   4.497 -0.0318  0.0320  0.0055
    1DIPC   C4B 4464  10.866  24.141   4.224  0.0732  0.0435  0.2033
    1DIPC   NC3 4465  16.568   5.444   5.739  0.0319 -0.0554 -0.1833
    1DIPC   PO4 4466  17.027   5.448   5.734 -0.0891  0.1458 -0.2983
    1DIPC   GL1 4467  16.958   5.457   5.336  0.1184  0.1406 -0.1526
    1DIPC   GL2 4468  17.228   5.609   5.167  0.3131 -0.0770 -0.2561
    1DIPC   C1A 4469  16.821   5.270   4.996  0.3258  0.3711 -0.0887
    1DIPC   D2A 4470  16.581   4.966   4.628 -0.2133  0.0151  0.0650
    1DIPC   D3A 4471  16.772   5.160   4.284 -0.5204  0.2075  0.2294
    1DIPC   C4A 4472  16.674   4.870   3.961 -0.0261 -0.0141  0.2677
    1DIPC   C1B 4473  17.463   5.733   4.844  0.1983  0.2179  0.1484
    1DIPC   D2B 4474  17.474   5.640   4.349 -0.2257 -0.1580 -0.1473
    1DIPC   D3B 4475  17.636   5.514   3.832  0.3181 -0.1938 -0.3239
    1DIPC   C4B 4476  17.544   5.866   3.536 -0.0453  0.1178  0.1571
    1DIPC   NC3 4477  28.178   2.692   7.360  0.4096  0.2097 -0.2773
    1DIPC   PO4 4478  28.153   2.454   6.899 -0.4097 -0.0570 -0.1301
    1DIPC   GL1 4479  27.902   2.284   6.618  0.1627  0.0401  0.3755
    1DIPC   GL2 4480  27.613   2.349   6.568  0.3073 -0.2136 -0.1631
    1DIPC   C1A 4481  27.731   2.031   6.275  0.0013  0.0837  0.0759
    1DIPC   D2A 4482  27.580   2.083   5.792 -0.1674  0.1090 -0.0666
    1DIPC   D3A 4483  27.203   1.880   5.481 -0.0998 -0.1680  0.2256
    1DIPC   C4A 4484  26.915   1.542   5.609  0.0119 -0.0212  0.0397
    1DIPC   C1B 4485  27.856   2.485   6.145 -0.2096  0.0170 -0.0613
    1DIPC   D2B 4486  28.208   2.595   5.887  0.0029  0.1170 -0.0482
    1DIPC   D3B 4487  28.106   2.916   5.745  0.2238  0.1176 -0.0222
    1DIPC   C4B 4488  28.300   3.041   5.343  0.0557  0.1819  0.0469
    1DIPC   NC3 4489  20.834  18.610   5.565  0.0695  0.3739 -0.0951
    1DIPC   PO4 4490  20.374  18.708   5.561  0.0390 -0.0627 -0.1159
    1DIPC   GL1 4491  20.154  18.661   5.151 -0.1202  0.3063 -0.1751
    1DIPC   GL2 4492  20.323  18.375   5.038  0.0827  0.0335  0.0000
    1DIPC   C1A 4493  19.968  18.925   4.980 -0.3247  0.4046  0.2490
    1DIPC   D2A 4494  19.827  19.172   4.609 -0.1865  0.2286 -0.3685
    1DIPC   D3A 4495  19.514  19.005   4.285  0.1470 -0.1120 -0.0349
    1DIPC   C4A 4496  19.319  18.889   3.831  0.0365  0.1688  0.1197
    1DIPC   C1B 4497  20.294  18.673   4.647 -0.0693  0.1912  0.1852
    1DIPC   D2B 4498  20.530  18.784   4.263 -0.0509  0.0482  0.0561
    1DIPC   D3B 4499  20.443  18.402   3.996  0.1545 -0.0692  0.0048
    1DIPC   C4B 4500  20.488  18.061   3.748  0.0005 -0.0601  0.0874
    1DIPC   NC3 4501  21.355  30.135   6.353 -0.1244  0.0399  0.0864
    1DIPC   PO4 4502  21.493   0.011   6.628 -0.0628 -0.2050  0.0965
    1DIPC   GL1 4503  21.750   0.200   6.325  0.2500 -0.1388 -0.4809
    1DIPC   GL2 4504  21.893  30.209   6.177 -0.0549  0.0573 -0.1953
    1DIPC   C1A 4505  22.020   0.545   6.095 -0.1531  0.0376  0.2674
    1DIPC   D2A 4506  22.362   0.634   5.828  0.0674  0.1588 -0.0585
    1DIPC   D3A 4507  22.131   0.669   5.505 -0.2705  0.3365 -0.0505
    1DIPC   C4A 4508  22.127   1.062   5.351 -0.3411 -0.0575  0.1989
    1DIPC   C1B 4509  21.705  30.053   5.844 -0.4082 -0.1076  0.0044
    1DIPC   D2B 4510  21.483  29.942   5.514 -0.0971  0.1102 -0.0325
    1DIPC   D3B 4511  21.708  30.316   5.450  0.0122 -0.3586 -0.2385
    1DIPC   C4B 4512  21.452   0.424   5.450  0.1508  0.1563  0.0577
    1DIPC   NC3 4513  20.511  26.466   6.445  0.0245 -0.2479 -0.1957
    1DIPC   PO4 4514  20.545  26.152   6.265  0.3026  0.2176 -0.0027
    1DIPC   GL1 4515  20.817  26.195   6.036 -0.3071  0.2409  0.0930
    1DIPC   GL2 4516  20.925  25.937   5.805  0.1029  0.2210 -0.2730
    1DIPC   C1A 4517  21.117  26.417   5.878  0.2155 -0.0082  0.2385
    1DIPC   D2A 4518  21.293  26.702   6.102  0.1170 -0.1408 -0.0651
    1DIPC   D3A 4519  21.236  26.995   5.831  0.1030  0.0223  0.1194
    1DIPC   C4A 4520  21.189  27.042   5.389  0.4761  0.0518  0.2887
    1DIPC   C1B 4521  20.728  26.257   5.526 -0.0117  0.2929 -0.0625
    1DIPC   D2B 4522  20.853  26.738   5.576  0.3612  0.0228  0.2488
    1DIPC   D3B 4523  20.553  26.669   5.321  0.0527 -0.0380  0.1442
    1DIPC   C4B 4524  20.559  26.422   5.036  0.1876  0.2400 -0.3237
    1DIPC   NC3 4525  16.125   2.768   6.467  0.0806 -0.1996 -0.1899
    1DIPC   PO4 4526  15.885   2.983   6.151  0.1689  0.1568 -0.0567
    1DIPC   GL1 4527  15.547   2.823   5.930  0.0957 -0.3609 -0.0931
    1DIPC   GL2 4528  15.285   3.038   5.968  0.0223  0.3360  0.2736
    1DIPC   C1A 4529  15.629   2.772   5.549  0.1959  0.2125  0.0688
    1DIPC   D2A 4530  15.587   2.671   5.158  0.0211  0.1506 -0.0697
    1DIPC   D3A 4531  15.237   2.548   4.866 -0.0084  0.0869 -0.3220
    1DIPC   C4A 4532  15.275   2.337   4.489  0.1354  0.1666 -0.3323
    1DIPC   C1B 4533  15.086   3.010   5.484  0.2078  0.0661 -0.1422
    1DIPC   D2B 4534  14.790   2.873   5.281 -0.1351 -0.1646 -0.1420
    1DIPC   D3B 4535  14.434   2.624   5.443  0.1873  0.1226  0.0594
    1DIPC   C4B 4536  14.222   2.600   5.074 -0.1049  0.1118 -0.1517
    1DIPC   NC3 4537   3.036  13.018   6.264  0.3397 -0.4791  0.1035
    1DIPC   PO4 4538   3.352  12.746   6.322 -0.0072  0.0197 -0.1551
    1DIPC   GL1 4539   3.494  12.810   5.914  0.1200  0.0771  0.1435
    1DIPC   GL2 4540   3.305  13.064   5.742  0.0716  0.2294 -0.0785
    1DIPC   C1A 4541   3.497  12.617   5.508 -0.0055  0.0341 -0.1269
    1DIPC   D2A 4542   3.737  12.731   5.168  0.1225  0.1031  0.1048
    1DIPC   D3A 4543   3.970  12.757   4.799 -0.1392 -0.2822 -0.1811
    1DIPC   C4A 4544   4.089  12.575   4.413  0.3665 -0.0276 -0.0605
    1DIPC   C1B 4545   3.416  13.058   5.262 -0.1471 -0.0408 -0.0509
    1DIPC   D2B 4546   3.450  13.229   4.819 -0.1019 -0.1397 -0.2282
    1DIPC   D3B 4547   3.762  13.190   4.935 -0.1244 -0.1154 -0.0569
    1DIPC   C4B 4548   4.000  13.146   5.263  0.2148  0.0070 -0.2453
    1DIPC   NC3 4549   2.983   6.918   6.478 -0.0805 -0.0413  0.1805
    1DIPC   PO4 4550   2.534   6.829   6.396 -0.0040 -0.0747  0.3093
    1DIPC   GL1 4551   2.732   6.903   6.020  0.0062 -0.2367 -0.1426
    1DIPC   GL2 4552   2.886   7.091   5.925  0.0609 -0.1371  0.1520
    1DIPC   C1A 4553   2.726   6.588   5.802 -0.4173  0.0709  0.3144
    1DIPC   D2A 4554   2.463   6.291   5.575  0.0798  0.2534  0.0884
    1DIPC   D3A 4555   2.365   6.337   5.206  0.3585  0.0526  0.3901
    1DIPC   C4A 4556   2.039   6.121   4.962 -0.1077  0.1108 -0.3008
    1DIPC   C1B 4557   2.656   7.024   5.568  0.3134  0.0850 -0.1203
    1DIPC   D2B 4558   2.495   6.849   5.221 -0.1845 -0.1926  0.2666
    1DIPC   D3B 4559   2.127   6.810   5.112  0.0055 -0.1301  0.1299
    1DIPC   C4B 4560   1.961   6.539   4.771  0.1058  0.2660 -0.1072
    1DIPC   NC3 4561  16.524  10.138   6.438  0.0241  0.0466  0.0488
    1DIPC   PO4 4562  16.598   9.687   6.339  0.2522  0.0430  0.0564
    1DIPC   GL1 4563  16.666   9.719   5.837 -0.0776 -0.2873  0.0616
    1DIPC   GL2 4564  16.966   9.738   5.738 -0.1592 -0.3716 -0.0729
    1DIPC   C1A 4565  16.484   9.889   5.483 -0.0194  0.1997 -0.0351
    1DIPC   D2A 4566  16.341   9.890   5.111 -0.1189  0.0373 -0.3469
    1DIPC   D3A 4567  16.000  10.233   5.061  0.2481  0.0044  0.1351
    1DIPC   C4A 4568  16.016  10.195   4.654 -0.1851 -0.0970 -0.0946
    1DIPC   C1B 4569  16.917   9.585   5.349 -0.1276  0.0160 -0.0158
    1DIPC   D2B 4570  16.893   9.580   4.919 -0.0891 -0.2200 -0.1846
    1DIPC   D3B 4571  16.717  10.035   4.808 -0.0206  0.1676 -0.2696
    1DIPC   C4B 4572  16.456  10.004   4.464 -0.2090 -0.0637 -0.0351
    1DIPC   NC3 4573   9.517  25.506   6.452 -0.1195  0.2425  0.0625
    1DIPC   PO4 4574   9.503  25.261   6.244 -0.1124 -0.1330  0.0444
    1DIPC   GL1 4575   9.678  25.563   5.945 -0.0861 -0.0978 -0.0007
    1DIPC   GL2 4576   9.463  25.632   5.690 -0.1439 -0.0803  0.0806
    1DIPC   C1A 4577  10.017  25.691   5.656 -0.4374  0.0888  0.0843
    1DIPC   D2A 4578  10.502  25.484   5.659 -0.1363  0.1443  0.0772
    1DIPC   D3A 4579  10.587  25.032   5.638  0.1369  0.0790  0.3540
    1DIPC   C4A 4580  11.009  25.022   5.632  0.0311 -0.0546 -0.1835
    1DIPC   C1B 4581   9.606  25.556   5.256  0.1520  0.2639  0.0547
    1DIPC   D2B 4582   9.975  25.752   5.120  0.2383 -0.1880  0.0300
    1DIPC   D3B 4583   9.974  26.172   4.950 -0.1400  0.0203 -0.0373
    1DIPC   C4B 4584   9.612  26.244   4.563  0.1947  0.0942  0.0223
    1DIPC   NC3 4585  12.947   6.077   6.271 -0.0360 -0.0103 -0.1010
    1DIPC   PO4 4586  13.398   6.197   6.248 -0.1558 -0.3771  0.1522
    1DIPC   GL1 4587  13.534   6.369   5.935  0.2596  0.2358  0.0606
    1DIPC   GL2 4588  13.178   6.380   5.764  0.0117 -0.2570  0.0003
    1DIPC   C1A 4589  13.789   6.433   5.488 -0.0850  0.2410 -0.1918
    1DIPC   D2A 4590  14.102   6.272   5.048  0.4070  0.0778 -0.0876
    1DIPC   D3A 4591  14.184   6.633   4.842 -0.1974  0.0256 -0.2353
    1DIPC   C4A 4592  14.493   6.647   4.590  0.0484  0.0037  0.1607
    1DIPC   C1B 4593  13.336   6.252   5.422 -0.0237  0.2373 -0.0731
    1DIPC   D2B 4594  13.339   6.172   5.064 -0.1028  0.0270  0.1610
    1DIPC   D3B 4595  13.125   6.531   4.823 -0.0178  0.1011 -0.0420
    1DIPC   C4B 4596  12.997   6.647   5.258 -0.1090 -0.3152 -0.2145
    1DIPC   NC3 4597  26.815   4.222   7.375 -0.0788  0.1176  0.1183
    1DIPC   PO4 4598  26.600   4.626   7.347  0.1105  0.0803  0.0579
    1DIPC   GL1 4599  26.487   4.493   6.985  0.0369 -0.0061 -0.0133
    1DIPC   GL2 4600  26.522   4.736   6.827  0.0892 -0.1346  0.0930
    1DIPC   C1A 4601  26.236   4.351   6.525 -0.0784 -0.0659 -0.0690
    1DIPC   D2A 4602  25.925   4.414   6.190  0.1173 -0.2303 -0.1524
    1DIPC   D3A 4603  25.854   4.739   5.969 -0.2308  0.0640  0.0881
    1DIPC   C4A 4604  26.173   4.913   5.586 -0.0744 -0.0893  0.1135
    1DIPC   C1B 4605  26.596   4.965   6.556  0.1676 -0.0445 -0.0720
    1DIPC   D2B 4606  26.628   5.341   6.236 -0.0036  0.2131 -0.2223
    1DIPC   D3B 4607  26.853   5.458   6.523  0.1508  0.0158  0.0072
    1DIPC   C4B 4608  27.031   5.888   6.507 -0.0423 -0.1193  0.1720
    1DIPC   NC3 4609  21.265  15.721   6.110 -0.1719 -0.0983  0.0669
    1DIPC   PO4 4610  21.214  16.150   5.940 -0.2305 -0.0338 -0.1951
    1DIPC   GL1 4611  21.051  16.195   5.462 -0.1593 -0.0179 -0.0083
    1DIPC   GL2 4612  20.740  16.093   5.394  0.0474 -0.1733  0.1103
    1DIPC   C1A 4613  21.057  16.327   5.031  0.0945 -0.2379  0.1270
    1DIPC   D2A 4614  21.179  16.202   4.556  0.0901  0.0244  0.0284
    1DIPC   D3A 4615  21.481  16.302   4.310  0.2017 -0.1649  0.2678
    1DIPC   C4A 4616  21.800  16.514   4.557  0.1093  0.2579  0.0053
    1DIPC   C1B 4617  20.880  15.799   5.221 -0.0033  0.3451 -0.1412
    1DIPC   D2B 4618  21.046  15.388   4.969  0.3032 -0.1964  0.0207
    1DIPC   D3B 4619  21.024  15.311   4.478  0.1365 -0.0421  0.1609
    1DIPC   C4B 4620  20.748  15.410   4.124 -0.1372 -0.0852 -0.1091
    1DIPC   NC3 4621   2.920  29.013   7.314 -0.0747  0.1256  0.0076
    1DIPC   PO4 4622   3.407  29.181   7.310  0.1070  0.3502 -0.3993
    1DIPC   GL1 4623   3.330  29.347   6.929  0.0595  0.3908 -0.0731
    1DIPC   GL2 4624   2.975  29.263   6.837 -0.6244 -0.1803  0.0792
    1DIPC   C1A 4625   3.328  29.002   6.541  0.0438 -0.0243 -0.1376
    1DIPC   D2A 4626   3.022  28.820   6.334 -0.1247 -0.0586  0.2829
    1DIPC   D3A 4627   2.909  28.790   5.857  0.1544 -0.2181  0.1449
    1DIPC   C4A 4628   3.334  28.953   5.540  0.0293 -0.0591  0.2732
    1DIPC   C1B 4629   2.903  29.357   6.480 -0.2780 -0.0005 -0.2231
    1DIPC   D2B 4630   2.995  29.365   6.099  0.2444  0.0782 -0.0018
    1DIPC   D3B 4631   3.433  29.300   6.141 -0.0626  0.1942 -0.1786
    1DIPC   C4B 4632   3.566  29.522   6.586  0.0423  0.2958 -0.2917
    1DIPC   NC3 4633  13.521  21.130   5.685  0.1829 -0.1003  0.3938
    1DIPC   PO4 4634  13.810  20.795   5.553  0.0720 -0.3076 -0.3864
    1DIPC   GL1 4635  14.079  20.704   5.283 -0.1169 -0.0814 -0.1223
    1DIPC   GL2 4636  14.078  21.001   5.169 -0.1559 -0.0140  0.1061
    1DIPC   C1A 4637  14.373  20.647   5.018 -0.1179 -0.2819  0.1168
    1DIPC   D2A 4638  14.340  20.489   4.568  0.2909  0.2652  0.0353
    1DIPC   D3A 4639  14.651  20.325   4.414  0.0320  0.0453 -0.2330
    1DIPC   C4A 4640  15.045  20.043   4.482  0.1561  0.1618 -0.1201
    1DIPC   C1B 4641  14.152  20.998   4.671 -0.2717  0.1610 -0.0352
    1DIPC   D2B 4642  14.130  20.817   4.249  0.4070 -0.0610 -0.2996
    1DIPC   D3B 4643  14.178  20.894   3.750 -0.1140  0.2980  0.0339
    1DIPC   C4B 4644  14.255  21.260   3.654 -0.0107 -0.0253  0.3298
    1DIPC   NC3 4645  17.413   8.191   5.911  0.3386  0.1514  0.0815
    1DIPC   PO4 4646  17.326   7.721   5.710 -0.0464 -0.1049  0.1262
    1DIPC   GL1 4647  17.301   7.555   5.322  0.0779  0.0291  0.0660
    1DIPC   GL2 4648  17.122   7.367   5.264  0.5941  0.2575 -0.1900
    1DIPC   C1A 4649  17.303   7.746   4.888  0.1027  0.2510 -0.0124
    1DIPC   D2A 4650  17.545   7.962   4.500  0.0506 -0.1674  0.0389
    1DIPC   D3A 4651  17.878   7.699   4.505 -0.0677 -0.0357 -0.2939
    1DIPC   C4A 4652  18.171   7.780   4.205  0.0765  0.3925  0.1094
    1DIPC   C1B 4653  17.294   7.284   4.878  0.0601 -0.2598 -0.0795
    1DIPC   D2B 4654  17.371   7.482   4.432  0.1987 -0.1047 -0.2491
    1DIPC   D3B 4655  17.101   7.747   4.465 -0.1457 -0.1935 -0.0535
    1DIPC   C4B 4656  17.131   8.214   4.370 -0.1079 -0.0318 -0.0873
    1DIPC   NC3 4657  11.360   2.634   6.277  0.2427 -0.0669 -0.3955
    1DIPC   PO4 4658  11.173   2.256   6.368  0.1146 -0.0417  0.0376
    1DIPC   GL1 4659  11.151   2.028   6.003 -0.0803  0.1850 -0.1016
    1DIPC   GL2 4660  10.969   1.734   5.954  0.2151 -0.1149 -0.1370
    1DIPC   C1A 4661  10.896   2.073   5.592  0.1022 -0.2397  0.1054
    1DIPC   D2A 4662  10.684   2.374   5.210  0.1874  0.0769 -0.3136
    1DIPC   D3A 4663  10.358   2.135   5.427 -0.1249  0.0291  0.3120
    1DIPC   C4A 4664  10.104   1.959   5.088  0.2940  0.1324 -0.1193
    1DIPC   C1B 4665  10.923   1.598   5.464 -0.0539  0.2104  0.1359
    1DIPC   D2B 4666  10.882   1.858   5.089 -0.1588  0.1070 -0.2923
    1DIPC   D3B 4667  10.726   2.153   4.737 -0.0069  0.2040  0.0337
    1DIPC   C4B 4668  10.688   2.591   4.749 -0.1549  0.0762  0.4043
    1DIPC   NC3 4669  26.243   2.534   6.765 -0.2687 -0.0193  0.3667
    1DIPC   PO4 4670  26.668   2.483   6.896  0.1919 -0.1710  0.1903
    1DIPC   GL1 4671  26.992   2.245   6.664  0.0557 -0.0143 -0.2672
    1DIPC   GL2 4672  27.101   2.041   6.663  0.2998 -0.0557  0.1329
    1DIPC   C1A 4673  27.255   2.191   6.221  0.0069 -0.1797 -0.1809
    1DIPC   D2A 4674  27.037   2.217   5.855 -0.0531  0.3302  0.0140
    1DIPC   D3A 4675  26.582   2.222   5.956  0.0469  0.2987  0.0942
    1DIPC   C4A 4676  26.417   1.808   6.162 -0.0928 -0.1025  0.0079
    1DIPC   C1B 4677  26.934   1.764   6.434  0.0571 -0.2824 -0.0617
    1DIPC   D2B 4678  26.760   1.547   6.053 -0.3362 -0.0522  0.3060
    1DIPC   D3B 4679  26.471   1.628   5.669 -0.0761 -0.0937 -0.3129
    1DIPC   C4B 4680  26.115   1.766   5.435  0.2617 -0.0171 -0.0940
    1DIPC   NC3 4681  11.954   0.402   6.580 -0.0624  0.0725  0.1139
    1DIPC   PO4 4682  11.570   0.396   6.398  0.0627 -0.2583  0.1716
    1DIPC   GL1 4683  11.767   0.518   6.002  0.4299 -0.1372 -0.1159
    1DIPC   GL2 4684  11.815   0.819   6.184  0.2023  0.3492  0.2950
    1DIPC   C1A 4685  11.974   0.477   5.571 -0.1653  0.4617 -0.0495
    1DIPC   D2A 4686  11.902   0.340   5.284  0.1803 -0.1619  0.0444
    1DIPC   D3A 4687  11.671   0.552   4.972  0.0386  0.1703 -0.0015
    1DIPC   C4A 4688  11.237   0.455   4.907 -0.2155 -0.2933  0.0398
    1DIPC   C1B 4689  11.655   1.043   5.736 -0.0396 -0.1998 -0.0697
    1DIPC   D2B 4690  11.925   1.229   5.326  0.1768  0.1792 -0.3142
    1DIPC   D3B 4691  12.115   1.022   4.957 -0.2227  0.3269 -0.2130
    1DIPC   C4B 4692  11.952   0.765   4.656 -0.0468 -0.0441  0.2878
    1DIPC   NC3 4693  23.337   7.853   5.998  0.2134 -0.3337 -0.1680
    1DIPC   PO4 4694  23.031   7.832   6.171 -0.0374 -0.2674 -0.2858
    1DIPC   GL1 4695  22.892   7.486   5.879 -0.2798 -0.3275 -0.1509
    1DIPC   GL2 4696  23.238   7.366   5.780 -0.3886  0.1553  0.0759
    1DIPC   C1A 4697  22.904   7.155   5.481  0.1266  0.0367  0.3201
    1DIPC   D2A 4698  22.889   6.859   5.182  0.0337  0.0232  0.1494
    1DIPC   D3A 4699  23.251   6.973   4.776  0.0913  0.2246  0.0762
    1DIPC   C4A 4700  23.199   7.312   4.571  0.1207  0.3017 -0.4264
    1DIPC   C1B 4701  23.139   7.540   5.416  0.1724 -0.0827 -0.3588
    1DIPC   D2B 4702  22.846   7.797   5.237 -0.1803 -0.1870  0.1168
    1DIPC   D3B 4703  22.488   7.582   5.118  0.1421 -0.0133 -0.0244
    1DIPC   C4B 4704  22.475   7.162   5.146  0.0578  0.0141 -0.2866
    1DIPC   NC3 4705  16.597  22.786   6.336 -0.1713  0.0886 -0.2934
    1DIPC   PO4 4706  16.249  22.810   6.059 -0.0231  0.1350 -0.0727
    1DIPC   GL1 4707  16.270  22.902   5.608 -0.1824 -0.2838  0.2293
    1DIPC   GL2 4708  16.073  23.023   5.605 -0.2478  0.1782 -0.0641
    1DIPC   C1A 4709  16.398  23.224   5.187 -0.1627 -0.1837  0.3997
    1DIPC   D2A 4710  16.248  23.542   4.888 -0.3004 -0.1153  0.0985
    1DIPC   D3A 4711  16.092  23.151   4.737  0.0186  0.2321  0.1886
    1DIPC   C4A 4712  16.070  22.744   4.773 -0.0214  0.0026 -0.0309
    1DIPC   C1B 4713  15.965  23.442   5.421 -0.1199  0.1934  0.2935
    1DIPC   D2B 4714  15.783  23.681   5.036  0.1463  0.5238 -0.0299
    1DIPC   D3B 4715  16.009  24.072   4.856 -0.2034 -0.0733  0.1878
    1DIPC   C4B 4716  15.793  24.492   4.639 -0.0025  0.0819 -0.1093
    1DIPC   NC3 4717  20.366  28.619   6.949  0.0951 -0.2091  0.0823
    1DIPC   PO4 4718  20.665  28.283   6.724 -0.3284 -0.0507 -0.0256
    1DIPC   GL1 4719  20.727  28.587   6.408  0.0693 -0.1357  0.0604
    1DIPC   GL2 4720  21.070  28.587   6.283  0.0765 -0.0198  0.3172
    1DIPC   C1A 4721  20.772  28.963   6.156 -0.1704 -0.1395 -0.0185
    1DIPC   D2A 4722  20.607  29.373   6.129 -0.0520  0.2713  0.0333
    1DIPC   D3A 4723  20.348  29.645   5.906  0.1306  0.1282  0.1570
    1DIPC   C4A 4724  20.012  29.485   5.807 -0.2613 -0.0189 -0.3466
    1DIPC   C1B 4725  20.867  28.480   5.899 -0.2357  0.2850  0.0964
    1DIPC   D2B 4726  20.822  28.292   5.541  0.3030  0.0950 -0.1609
    1DIPC   D3B 4727  20.539  28.636   5.327 -0.0170 -0.0064 -0.2643
    1DIPC   C4B 4728  20.359  28.567   4.914 -0.1044 -0.1240  0.1761
    1DIPC   NC3 4729   9.260   1.121   6.722  0.1434 -0.3831  0.2344
    1DIPC   PO4 4730   8.977   1.509   6.550 -0.1998  0.0583  0.0070
    1DIPC   GL1 4731   8.783   1.492   6.284 -0.2876 -0.1796 -0.2030
    1DIPC   GL2 4732   8.876   1.619   6.045 -0.0789  0.1498 -0.1605
    1DIPC   C1A 4733   8.503   1.199   6.067 -0.1175 -0.0158  0.0325
    1DIPC   D2A 4734   8.259   1.248   5.719  0.3929  0.2952 -0.2341
    1DIPC   D3A 4735   8.433   1.437   5.382  0.1781 -0.1323 -0.0606
    1DIPC   C4A 4736   8.013   1.587   5.070 -0.3363 -0.4752 -0.0554
    1DIPC   C1B 4737   8.809   1.739   5.571  0.0032 -0.0257 -0.1304
    1DIPC   D2B 4738   8.661   1.942   5.234  0.2838 -0.0608  0.1774
    1DIPC   D3B 4739   8.244   2.146   5.298  0.0381 -0.0398 -0.0476
    1DIPC   C4B 4740   7.811   2.058   5.154 -0.0173  0.1388 -0.2905
    1DIPC   NC3 4741  14.236  26.940   7.008 -0.2537  0.1109 -0.3148
    1DIPC   PO4 4742  13.814  26.903   6.691  0.1722 -0.1022 -0.1163
    1DIPC   GL1 4743  13.995  27.146   6.313  0.2372 -0.0503  0.2435
    1DIPC   GL2 4744  13.862  27.424   6.188  0.0607  0.3166 -0.0886
    1DIPC   C1A 4745  14.176  27.042   5.867  0.0425  0.0245  0.4571
    1DIPC   D2A 4746  14.444  27.045   5.453 -0.2930 -0.2124  0.1689
    1DIPC   D3A 4747  14.182  26.706   5.337  0.1614  0.0715  0.2055
    1DIPC   C4A 4748  14.185  26.594   4.852 -0.0305 -0.0394 -0.1126
    1DIPC   C1B 4749  13.904  27.488   5.756  0.0746  0.1642  0.1155
    1DIPC   D2B 4750  13.732  27.741   5.408  0.0571  0.1180  0.2971
    1DIPC   D3B 4751  13.891  28.167   5.380 -0.2967  0.1318 -0.1486
    1DIPC   C4B 4752  13.674  28.318   5.031 -0.0219 -0.3780  0.0150
    1DIPC   NC3 4753  22.886  24.906   6.138  0.0883 -0.2309  0.0231
    1DIPC   PO4 4754  22.660  24.507   6.196 -0.1270  0.0123 -0.0381
    1DIPC   GL1 4755  22.520  24.561   5.792 -0.4616  0.0870  0.1912
    1DIPC   GL2 4756  22.553  24.950   5.737  0.2293  0.1071  0.1964
    1DIPC   C1A 4757  22.266  24.637   5.383 -0.0012 -0.2119 -0.1280
    1DIPC   D2A 4758  22.095  24.699   5.074  0.1489 -0.0564 -0.0251
    1DIPC   D3A 4759  22.032  24.300   4.947 -0.2638  0.0290  0.3428
    1DIPC   C4A 4760  22.294  24.382   4.614  0.0308 -0.2696 -0.4324
    1DIPC   C1B 4761  22.443  25.140   5.435  0.2138  0.1235  0.0677
    1DIPC   D2B 4762  22.492  25.319   5.026  0.2064  0.0827 -0.1605
    1DIPC   D3B 4763  22.216  25.530   4.787 -0.0919  0.1205  0.0455
    1DIPC   C4B 4764  22.190  25.309   4.341 -0.2435  0.1197 -0.1265
    1DIPC   NC3 4765  13.847   3.231   6.500  0.1183  0.0813  0.0316
    1DIPC   PO4 4766  13.687   2.938   6.750  0.2594  0.1888 -0.0444
    1DIPC   GL1 4767  13.268   3.004   6.495 -0.0872 -0.3351 -0.5590
    1DIPC   GL2 4768  13.414   3.085   6.204 -0.0356  0.1202  0.1210
    1DIPC   C1A 4769  12.832   3.043   6.339 -0.1557  0.2839 -0.0293
    1DIPC   D2A 4770  12.526   2.979   6.082 -0.2491  0.0140  0.1389
    1DIPC   D3A 4771  12.594   3.029   5.667 -0.3956 -0.0563  0.2765
    1DIPC   C4A 4772  12.841   3.293   5.398 -0.1345  0.3427 -0.0689
    1DIPC   C1B 4773  13.649   3.147   5.799  0.1127 -0.0131  0.1980
    1DIPC   D2B 4774  13.749   3.317   5.393 -0.1503  0.2655  0.1205
    1DIPC   D3B 4775  13.734   3.158   4.973  0.1388  0.0233  0.1783
    1DIPC   C4B 4776  13.455   3.436   4.605 -0.1702  0.0627 -0.0519
    1DIPC   NC3 4777  21.574  12.310   6.220  0.2387 -0.0395  0.4593
    1DIPC   PO4 4778  21.894  12.161   5.908 -0.2119 -0.4359  0.2360
    1DIPC   GL1 4779  21.807  11.998   5.462 -0.2572  0.0144 -0.1092
    1DIPC   GL2 4780  22.054  11.696   5.328 -0.0754 -0.0006  0.0527
    1DIPC   C1A 4781  21.703  12.064   5.110 -0.1932  0.0467 -0.2856
    1DIPC   D2A 4782  21.859  12.308   4.802  0.0635 -0.0660  0.1574
    1DIPC   D3A 4783  21.850  12.712   4.702 -0.0980 -0.2415 -0.2117
    1DIPC   C4A 4784  21.903  12.806   4.205 -0.4280  0.2856 -0.0367
    1DIPC   C1B 4785  21.994  11.804   4.850 -0.1425 -0.0255 -0.2681
    1DIPC   D2B 4786  22.193  11.941   4.555 -0.1800  0.0506  0.0026
    1DIPC   D3B 4787  22.285  11.829   4.085 -0.1709 -0.1872  0.0130
    1DIPC   C4B 4788  21.965  11.526   4.090 -0.1859  0.0431  0.2886
    1DIPC   NC3 4789   5.466  26.313   6.793 -0.1156  0.1915  0.2628
    1DIPC   PO4 4790   5.157  26.010   6.524  0.1206  0.3330  0.1692
    1DIPC   GL1 4791   5.081  26.175   5.998  0.0476 -0.2651  0.0368
    1DIPC   GL2 4792   4.753  26.260   6.057  0.1325  0.0420  0.4344
    1DIPC   C1A 4793   5.029  26.373   5.596 -0.0553  0.3057 -0.3547
    1DIPC   D2A 4794   5.234  26.330   5.262 -0.2378  0.0378 -0.2698
    1DIPC   D3A 4795   5.127  26.557   4.816  0.1982 -0.2578  0.2793
    1DIPC   C4A 4796   4.780  26.969   4.682  0.0294 -0.1486 -0.0900
    1DIPC   C1B 4797   4.422  26.230   5.725 -0.2551  0.1843  0.2180
    1DIPC   D2B 4798   4.122  26.516   5.791  0.4008 -0.2087  0.1524
    1DIPC   D3B 4799   4.320  26.636   5.395 -0.1031 -0.1420  0.3317
    1DIPC   C4B 4800   4.438  27.046   5.294 -0.0786  0.0459  0.5122
    1DIPC   NC3 4801  26.584   8.888   6.208 -0.1364 -0.1140 -0.3096
    1DIPC   PO4 4802  26.866   9.299   6.275  0.0812 -0.0315  0.1783
    1DIPC   GL1 4803  26.804   9.347   5.838  0.0607 -0.1120  0.2407
    1DIPC   GL2 4804  27.104   9.241   5.687  0.0594  0.1539  0.2697
    1DIPC   C1A 4805  26.745   9.364   5.422 -0.1191  0.1710  0.3306
    1DIPC   D2A 4806  26.507   9.737   5.321 -0.0723 -0.2434 -0.3294
    1DIPC   D3A 4807  26.455   9.560   4.883  0.0359 -0.0916  0.0434
    1DIPC   C4A 4808  26.608   9.231   4.657 -0.1557 -0.0471  0.3423
    1DIPC   C1B 4809  27.184   8.918   5.440 -0.0643 -0.0711  0.1219
    1DIPC   D2B 4810  26.904   8.544   5.355 -0.2771 -0.1422  0.0672
    1DIPC   D3B 4811  27.000   8.602   4.887  0.1141  0.0378 -0.1346
    1DIPC   C4B 4812  26.883   8.806   4.596 -0.2274  0.1647 -0.2594
    1DIPC   NC3 4813  24.063  10.709   5.809 -0.2110  0.0034 -0.2448
    1DIPC   PO4 4814  24.388  11.159   5.965 -0.0400  0.2166 -0.3030
    1DIPC   GL1 4815  24.177  11.104   5.485  0.1133 -0.0091  0.2851
    1DIPC   GL2 4816  23.834  11.121   5.445 -0.2105 -0.0223  0.2656
    1DIPC   C1A 4817  24.226  10.945   5.081  0.0563 -0.2181  0.3353
    1DIPC   D2A 4818  24.292  10.833   4.640  0.0535  0.2599 -0.3376
    1DIPC   D3A 4819  24.522  10.815   4.291  0.3267  0.0899  0.5275
    1DIPC   C4A 4820  24.743  11.220   4.125  0.0276  0.1887  0.0065
    1DIPC   C1B 4821  23.887  11.436   5.216 -0.2794 -0.2136 -0.1461
    1DIPC   D2B 4822  24.358  11.450   5.163  0.1479 -0.2750  0.1303
    1DIPC   D3B 4823  24.496  11.342   4.649  0.0753 -0.1206 -0.2725
    1DIPC   C4B 4824  24.766  11.568   4.486 -0.0448  0.3319  0.0169
    1DIPC   NC3 4825  12.298  16.455   6.764 -0.1277 -0.0947  0.2747
    1DIPC   PO4 4826  12.245  16.804   6.500  0.2409 -0.1503  0.0107
    1DIPC   GL1 4827  11.909  16.759   6.112  0.2479 -0.0388 -0.2589
    1DIPC   GL2 4828  11.903  16.649   5.941 -0.2163  0.2565  0.3851
    1DIPC   C1A 4829  11.649  17.107   5.859  0.2154 -0.0961  0.1173
    1DIPC   D2A 4830  11.414  17.190   5.520 -0.0564 -0.5049 -0.1110
    1DIPC   D3A 4831  11.664  17.063   5.167  0.0679  0.0446 -0.0168
    1DIPC   C4A 4832  11.766  16.657   4.909 -0.1752 -0.2204  0.0323
    1DIPC   C1B 4833  12.156  16.331   5.787 -0.1596  0.1744 -0.1217
    1DIPC   D2B 4834  12.534  16.348   5.662 -0.1342  0.0973  0.1385
    1DIPC   D3B 4835  12.441  15.986   5.522  0.0445  0.1314 -0.0979
    1DIPC   C4B 4836  12.586  15.800   5.157 -0.0916  0.0495 -0.1632
    1DIPC   NC3 4837   7.229   5.531   6.628 -0.1028 -0.0659  0.1047
    1DIPC   PO4 4838   7.160   5.120   6.682  0.0560  0.2238  0.0525
    1DIPC   GL1 4839   7.195   4.695   6.505  0.2028  0.2333  0.5034
    1DIPC   GL2 4840   7.511   4.512   6.487 -0.0694  0.0162  0.2128
    1DIPC   C1A 4841   7.045   4.464   6.072 -0.0638 -0.2046 -0.2919
    1DIPC   D2A 4842   6.696   4.256   5.776  0.0755 -0.0171  0.1785
    1DIPC   D3A 4843   6.911   3.943   5.564 -0.2968  0.0226 -0.3284
    1DIPC   C4A 4844   7.393   3.960   5.379  0.0641 -0.2149  0.3156
    1DIPC   C1B 4845   7.564   4.484   6.049 -0.0527 -0.0619  0.1676
    1DIPC   D2B 4846   7.432   4.616   5.622  0.0433  0.0818 -0.0442
    1DIPC   D3B 4847   7.138   4.390   5.484 -0.3840 -0.3222  0.1390
    1DIPC   C4B 4848   6.976   4.694   5.224  0.3790 -0.2707 -0.1777
    1DIPC   NC3 4849  28.518  23.654   6.837  0.3319 -0.2060  0.2346
    1DIPC   PO4 4850  28.661  24.069   6.601 -0.0138  0.1286 -0.1881
    1DIPC   GL1 4851  29.051  23.868   6.298  0.1001  0.1918  0.0364
    1DIPC   GL2 4852  29.339  24.012   6.302 -0.0771  0.0842 -0.1071
    1DIPC   C1A 4853  28.851  23.835   5.924  0.0440  0.0236  0.1561
    1DIPC   D2A 4854  28.822  23.753   5.593  0.2242 -0.0961  0.0820
    1DIPC   D3A 4855  28.424  23.929   5.451 -0.3332  0.2341 -0.0806
    1DIPC   C4A 4856  28.346  23.930   5.014  0.4001 -0.2361  0.0055
    1DIPC   C1B 4857  29.383  23.964   5.939  0.1447  0.0155 -0.2159
    1DIPC   D2B 4858  29.187  24.062   5.654  0.0128  0.1206  0.2339
    1DIPC   D3B 4859  28.917  24.289   5.779  0.1118  0.0867  0.4481
    1DIPC   C4B 4860  28.655  24.541   5.609 -0.0959  0.0539 -0.1653
    1DIPC   NC3 4861  27.119  10.581   6.455 -0.0305  0.0979 -0.2354
    1DIPC   PO4 4862  27.528  10.830   6.433  0.1371  0.0145  0.0773
    1DIPC   GL1 4863  27.700  10.554   6.120  0.2002 -0.0068  0.2276
    1DIPC   GL2 4864  27.993  10.651   5.938  0.0491 -0.0088  0.0445
    1DIPC   C1A 4865  27.401  10.420   5.868  0.2217  0.0493 -0.1446
    1DIPC   D2A 4866  27.015  10.069   5.714  0.1315 -0.2763  0.1716
    1DIPC   D3A 4867  27.095   9.794   5.310  0.0891  0.1798  0.0850
    1DIPC   C4A 4868  27.278   9.383   5.218  0.0863 -0.0870  0.0287
    1DIPC   C1B 4869  27.758  10.592   5.538 -0.1147 -0.3979  0.1887
    1DIPC   D2B 4870  27.282  10.568   5.464  0.1656 -0.1426  0.1999
    1DIPC   D3B 4871  27.080  10.323   5.115  0.3244 -0.2768  0.0671
    1DIPC   C4B 4872  26.722  10.058   4.971  0.1467 -0.1054 -0.0203
    1DIPC   NC3 4873   5.516  27.462   7.408  0.1768  0.1714 -0.0733
    1DIPC   PO4 4874   5.283  27.560   6.997  0.1746  0.0195  0.1712
    1DIPC   GL1 4875   5.353  27.434   6.609 -0.1546  0.6619 -0.1423
    1DIPC   GL2 4876   5.591  27.360   6.568  0.0034  0.1582  0.2223
    1DIPC   C1A 4877   5.295  27.648   6.195  0.1140  0.0360  0.0410
    1DIPC   D2A 4878   4.914  27.700   6.011  0.0535 -0.0956  0.2050
    1DIPC   D3A 4879   5.029  28.211   6.227  0.1784  0.0223 -0.1555
    1DIPC   C4A 4880   4.786  28.542   6.316  0.2654  0.0322  0.0814
    1DIPC   C1B 4881   5.758  27.481   6.194  0.1522 -0.4442  0.1277
    1DIPC   D2B 4882   5.781  27.543   5.779 -0.0769  0.1520  0.0041
    1DIPC   D3B 4883   6.103  27.317   5.444  0.1094  0.1681  0.1989
    1DIPC   C4B 4884   5.994  27.165   5.022  0.0860  0.0825  0.4057
    1DIPC   NC3 4885   9.700  19.528   6.398 -0.0222 -0.1899  0.0504
    1DIPC   PO4 4886   9.540  19.924   6.154 -0.0057  0.0363 -0.0410
    1DIPC   GL1 4887   9.552  19.968   5.760  0.0894  0.1271  0.0095
    1DIPC   GL2 4888   9.661  19.707   5.585 -0.0928 -0.2464  0.0272
    1DIPC   C1A 4889   9.554  20.110   5.323 -0.0446  0.0166 -0.0322
    1DIPC   D2A 4890   9.830  20.007   4.905  0.0510  0.0310  0.1530
    1DIPC   D3A 4891  10.175  20.147   5.037 -0.4072 -0.0643 -0.1081
    1DIPC   C4A 4892  10.579  20.304   4.779 -0.0941  0.0204 -0.0003
    1DIPC   C1B 4893   9.704  19.590   5.165 -0.0413 -0.0020 -0.2982
    1DIPC   D2B 4894   9.998  19.358   4.894 -0.2345  0.1294 -0.0209
    1DIPC   D3B 4895   9.835  19.124   4.614 -0.2146  0.1873  0.0922
    1DIPC   C4B 4896   9.741  18.744   4.688 -0.0523  0.0212 -0.0259
    1DIPC   NC3 4897  21.565   8.301   6.312 -0.1108  0.2855  0.2780
    1DIPC   PO4 4898  21.677   8.107   5.942 -0.0672 -0.0503  0.0723
    1DIPC   GL1 4899  21.613   8.019   5.473 -0.0171 -0.1818 -0.2574
    1DIPC   GL2 4900  21.743   8.288   5.383  0.1099  0.0617 -0.1965
    1DIPC   C1A 4901  21.645   7.960   4.991 -0.0335 -0.2234 -0.3369
    1DIPC   D2A 4902  21.525   7.762   4.563  0.1104 -0.3908 -0.1059
    1DIPC   D3A 4903  21.498   7.317   4.590  0.0406 -0.5783  0.1894
    1DIPC   C4A 4904  21.776   7.137   4.904  0.0460  0.0017  0.1395
    1DIPC   C1B 4905  21.413   8.516   5.030 -0.2141  0.2512 -0.0515
    1DIPC   D2B 4906  21.327   8.224   4.692  0.3106 -0.0971 -0.1148
    1DIPC   D3B 4907  21.071   8.083   4.246  0.4050 -0.0027  0.1085
    1DIPC   C4B 4908  20.789   8.229   4.006  0.0156 -0.3805  0.1245
    1DIPC   NC3 4909  19.809  27.594   6.923 -0.1433  0.0901  0.0604
    1DIPC   PO4 4910  19.411  27.691   7.044 -0.0889  0.1824 -0.0006
    1DIPC   GL1 4911  19.372  27.753   6.515 -0.0057  0.3108  0.0466
    1DIPC   GL2 4912  19.631  27.552   6.460  0.0988 -0.1372  0.2956
    1DIPC   C1A 4913  19.246  28.074   6.223 -0.2491  0.0599  0.1284
    1DIPC   D2A 4914  19.150  28.185   5.967 -0.3680 -0.2383  0.1932
    1DIPC   D3A 4915  19.108  28.233   5.547  0.0821 -0.1921 -0.1378
    1DIPC   C4A 4916  19.496  28.301   5.433  0.0256 -0.1176  0.1970
    1DIPC   C1B 4917  19.678  27.704   6.082  0.0902 -0.0998  0.1344
    1DIPC   D2B 4918  19.523  27.369   5.678 -0.1380 -0.4244 -0.0614
    1DIPC   D3B 4919  19.685  27.560   5.350  0.0505  0.0120 -0.1623
    1DIPC   C4B 4920  19.716  27.346   5.008  0.0080 -0.0298  0.0378
    1DIPC   NC3 4921   0.231  10.193   7.602  0.1500 -0.0054  0.0651
    1DIPC   PO4 4922  30.300  10.062   7.283  0.0340  0.0428  0.1038
    1DIPC   GL1 4923  30.297   9.906   6.842 -0.1716  0.1963 -0.0537
    1DIPC   GL2 4924   0.198  10.186   6.692  0.2235  0.0112 -0.1440
    1DIPC   C1A 4925  30.299   9.903   6.352 -0.0016  0.3684  0.0036
    1DIPC   D2A 4926   0.004   9.610   5.988 -0.0996  0.2575  0.1244
    1DIPC   D3A 4927  30.038   9.239   6.258  0.2207  0.2192  0.1878
    1DIPC   C4A 4928  29.688   9.198   6.048  0.1998  0.3043  0.0431
    1DIPC   C1B 4929   0.371   9.832   6.523 -0.1482  0.0625 -0.0511
    1DIPC   D2B 4930   0.645   9.738   6.222  0.2081  0.0133  0.2832
    1DIPC   D3B 4931   0.842  10.077   6.410  0.1955 -0.2764  0.2453
    1DIPC   C4B 4932   1.106  10.235   6.142 -0.1704 -0.1495  0.1846
    1DIPC   NC3 4933  17.392  21.499   6.170 -0.2246 -0.1122 -0.0274
    1DIPC   PO4 4934  17.013  21.660   5.957  0.0105 -0.1126  0.0511
    1DIPC   GL1 4935  17.208  21.652   5.570  0.2693  0.0096 -0.0001
    1DIPC   GL2 4936  17.299  21.991   5.510 -0.0190 -0.0447 -0.0731
    1DIPC   C1A 4937  17.381  21.578   5.213  0.0004 -0.1531 -0.0650
    1DIPC   D2A 4938  17.861  21.450   5.168  0.0044 -0.2312 -0.2563
    1DIPC   D3A 4939  17.953  21.086   5.030  0.0033 -0.2016  0.3627
    1DIPC   C4A 4940  17.960  20.717   4.987 -0.1371 -0.1028  0.0071
    1DIPC   C1B 4941  16.995  22.372   5.263  0.0647 -0.0300  0.0044
    1DIPC   D2B 4942  16.818  22.853   5.129 -0.3258 -0.3124 -0.1241
    1DIPC   D3B 4943  17.262  22.809   4.980  0.1751 -0.0026 -0.2355
    1DIPC   C4B 4944  17.496  22.641   4.666  0.1235  0.1747 -0.2140
    1DIPC   NC3 4945   2.193   5.047   6.926  0.1469 -0.1408  0.0150
    1DIPC   PO4 4946   2.211   5.378   6.598  0.1606 -0.0584  0.0552
    1DIPC   GL1 4947   2.321   5.302   6.145  0.3176  0.0433 -0.0537
    1DIPC   GL2 4948   2.594   5.192   6.196 -0.0296 -0.1981 -0.0450
    1DIPC   C1A 4949   2.392   5.330   5.732 -0.2479  0.1894 -0.0503
    1DIPC   D2A 4950   2.139   5.362   5.324  0.1726  0.1734  0.2313
    1DIPC   D3A 4951   2.320   5.617   4.925  0.0591 -0.1712 -0.0050
    1DIPC   C4A 4952   1.890   5.676   4.527 -0.2223 -0.0019 -0.1664
    1DIPC   C1B 4953   2.732   4.980   5.874 -0.2572  0.2483 -0.0869
    1DIPC   D2B 4954   2.905   4.843   5.503  0.0586 -0.3356  0.2762
    1DIPC   D3B 4955   2.984   4.486   5.188 -0.1537 -0.0770 -0.1279
    1DIPC   C4B 4956   2.869   4.036   5.198 -0.1013 -0.4045 -0.1599
    1DIPC   NC3 4957   2.183   2.965   7.333  0.2328 -0.1342  0.2864
    1DIPC   PO4 4958   2.012   2.689   7.007  0.0854  0.3645 -0.0642
    1DIPC   GL1 4959   1.921   2.680   6.553 -0.5368  0.1109  0.0340
    1DIPC   GL2 4960   1.613   2.751   6.368  0.2392  0.3650  0.0395
    1DIPC   C1A 4961   2.126   2.599   6.267  0.0627 -0.0581  0.1153
    1DIPC   D2A 4962   2.429   2.412   5.959  0.1681 -0.1598 -0.1568
    1DIPC   D3A 4963   2.667   2.050   5.861  0.0208 -0.1026  0.0037
    1DIPC   C4A 4964   2.742   2.071   5.381 -0.1856  0.2829 -0.4650
    1DIPC   C1B 4965   1.667   2.598   5.838  0.0471 -0.3422  0.3566
    1DIPC   D2B 4966   1.834   2.569   5.350  0.5364 -0.3357 -0.1558
    1DIPC   D3B 4967   1.838   2.868   5.080 -0.0001  0.2909  0.0562
    1DIPC   C4B 4968   1.677   2.701   4.771  0.0411 -0.0347 -0.0348
    1DIPC   NC3 4969  23.267   1.100   6.994  0.0818  0.1293 -0.3267
    1DIPC   PO4 4970  23.496   1.487   7.079  0.0028  0.0429  0.1621
    1DIPC   GL1 4971  23.633   1.467   6.612 -0.0524 -0.0496 -0.3646
    1DIPC   GL2 4972  23.237   1.430   6.589  0.0587 -0.0411  0.2360
    1DIPC   C1A 4973  23.716   1.166   6.309  0.1352  0.2134 -0.1821
    1DIPC   D2A 4974  23.778   1.102   5.930  0.3140  0.1074 -0.0609
    1DIPC   D3A 4975  24.077   0.810   5.799 -0.0399  0.2456 -0.0039
    1DIPC   C4A 4976  24.454   0.746   5.564  0.0873 -0.0869 -0.0482
    1DIPC   C1B 4977  23.350   1.355   6.035  0.0726 -0.3494  0.0822
    1DIPC   D2B 4978  23.361   1.353   5.609  0.1145  0.0373  0.2186
    1DIPC   D3B 4979  23.109   0.959   5.573 -0.0900 -0.2026 -0.1986
    1DIPC   C4B 4980  23.107   0.838   5.204  0.0561 -0.1702 -0.4003
    1DIPC   NC3 4981  20.190  21.736   6.129  0.1413  0.1111 -0.0961
    1DIPC   PO4 4982  20.524  21.951   6.045 -0.0215  0.2386  0.1341
    1DIPC   GL1 4983  20.494  22.254   5.703  0.0258 -0.1979 -0.1152
    1DIPC   GL2 4984  20.122  22.302   5.678 -0.0497  0.0453 -0.3270
    1DIPC   C1A 4985  20.406  22.148   5.279 -0.1106  0.0189  0.2784
    1DIPC   D2A 4986  20.267  22.208   4.846  0.1760 -0.0992  0.0734
    1DIPC   D3A 4987  20.274  21.832   4.940 -0.1103  0.3048 -0.2554
    1DIPC   C4A 4988  20.507  21.646   5.252 -0.0257 -0.1270  0.0826
    1DIPC   C1B 4989  20.068  22.619   5.401 -0.2220 -0.0786  0.0737
    1DIPC   D2B 4990  19.858  22.483   5.006 -0.1960  0.3586  0.3221
    1DIPC   D3B 4991  19.912  22.578   4.613 -0.1006 -0.0080 -0.3675
    1DIPC   C4B 4992  20.003  22.346   4.397  0.2549  0.0176  0.1006
    1DIPC   NC3 4993  28.411  28.417   7.264 -0.1090  0.0252 -0.0991
    1DIPC   PO4 4994  28.009  28.286   7.292 -0.0042 -0.2373 -0.2211
    1DIPC   GL1 4995  27.939  28.626   7.052  0.1490 -0.3264 -0.3053
    1DIPC   GL2 4996  28.167  28.526   6.802 -0.2059  0.1202 -0.0000
    1DIPC   C1A 4997  27.862  29.034   6.806 -0.2201  0.2271  0.2352
    1DIPC   D2A 4998  27.621  29.087   6.453 -0.1229  0.0930 -0.0688
    1DIPC   D3A 4999  27.400  29.096   6.027 -0.0661 -0.2726 -0.1838
    1DIPC   C4A 5000  26.959  28.823   5.971  0.1512  0.0000 -0.0503
    1DIPC   C1B 5001  28.032  28.714   6.458  0.1260 -0.0819  0.1358
    1DIPC   D2B 5002  28.277  29.052   6.309 -0.2614  0.1197  0.1483
    1DIPC   D3B 5003  28.276  29.191   5.868  0.2945  0.0147 -0.0074
    1DIPC   C4B 5004  28.006  29.440   5.585 -0.0770  0.0688  0.1316
    1DIPC   NC3 5005  10.445  14.396   7.049  0.0368  0.3554  0.0661
    1DIPC   PO4 5006  10.125  14.075   7.126 -0.2473 -0.4601  0.0940
    1DIPC   GL1 5007  10.258  13.982   6.741  0.0350  0.1187  0.1036
    1DIPC   GL2 5008  10.476  13.603   6.704 -0.0261 -0.2924  0.3283
    1DIPC   C1A 5009  10.033  13.693   6.377  0.1943 -0.0802 -0.0617
    1DIPC   D2A 5010   9.770  13.416   6.118 -0.1044  0.1434 -0.1304
    1DIPC   D3A 5011   9.733  13.151   6.425 -0.0736  0.0758 -0.2065
    1DIPC   C4A 5012   9.311  12.905   6.631  0.2346 -0.0583  0.2373
    1DIPC   C1B 5013  10.436  13.965   6.281 -0.0890 -0.0080 -0.0552
    1DIPC   D2B 5014  10.437  13.747   5.736  0.0308  0.1086  0.0411
    1DIPC   D3B 5015  10.701  13.725   5.383  0.0512  0.1565 -0.2497
    1DIPC   C4B 5016  10.690  13.986   5.092  0.1366  0.0393 -0.2251
    1DIPC   NC3 5017  20.620  10.622   6.392 -0.1196  0.2079 -0.0788
    1DIPC   PO4 5018  20.726  10.257   6.048 -0.0896  0.3573  0.1039
    1DIPC   GL1 5019  20.616  10.135   5.679 -0.1119  0.1353  0.0648
    1DIPC   GL2 5020  20.950  10.012   5.393  0.0912  0.2539  0.0381
    1DIPC   C1A 5021  20.495  10.109   5.149  0.4862 -0.0569 -0.0360
    1DIPC   D2A 5022  20.148   9.987   4.916 -0.1401  0.2854 -0.1044
    1DIPC   D3A 5023  20.372   9.990   4.576  0.3497 -0.0093  0.1940
    1DIPC   C4A 5024  20.198   9.780   4.179 -0.1654 -0.0418 -0.1010
    1DIPC   C1B 5025  21.329  10.045   5.130  0.0282  0.0257  0.0513
    1DIPC   D2B 5026  21.319  10.315   4.853  0.0781 -0.3923  0.0602
    1DIPC   D3B 5027  20.987  10.479   4.745  0.2527 -0.2115  0.0966
    1DIPC   C4B 5028  20.959  10.633   4.336 -0.1626  0.1625  0.0664
    1DIPC   NC3 5029  19.994   8.749   5.840  0.3784  0.1456 -0.1639
    1DIPC   PO4 5030  19.826   9.218   5.857 -0.2065 -0.1587 -0.0892
    1DIPC   GL1 5031  19.587   9.065   5.497  0.0269 -0.2255  0.0926
    1DIPC   GL2 5032  19.701   8.856   5.453 -0.0965  0.0591 -0.0953
    1DIPC   C1A 5033  19.300   8.900   5.072  0.1742  0.2239  0.0658
    1DIPC   D2A 5034  19.356   8.783   4.652 -0.0632 -0.1088 -0.0264
    1DIPC   D3A 5035  19.769   8.983   4.656 -0.0693  0.4332  0.3641
    1DIPC   C4A 5036  20.012   8.702   4.273 -0.0138  0.2928 -0.2430
    1DIPC   C1B 5037  19.838   8.748   5.096 -0.1907 -0.0838  0.0219
    1DIPC   D2B 5038  20.019   8.516   4.797 -0.0180 -0.0346  0.0643
    1DIPC   D3B 5039  20.066   8.039   4.858  0.0087  0.1035  0.1585
    1DIPC   C4B 5040  20.264   7.815   4.537 -0.1269  0.0051  0.2346
    1DIPC   NC3 5041   9.435   8.628   6.588 -0.0761 -0.2458  0.3749
    1DIPC   PO4 5042   9.464   8.961   6.404 -0.0465  0.0830  0.0129
    1DIPC   GL1 5043   9.461   9.073   5.984  0.2057  0.1259  0.3272
    1DIPC   GL2 5044   9.330   9.481   5.930 -0.3372  0.0317  0.0556
    1DIPC   C1A 5045   9.670   9.214   5.677 -0.0521  0.3204  0.1316
    1DIPC   D2A 5046   9.808   9.327   5.358 -0.3002  0.2716  0.1726
    1DIPC   D3A 5047   9.532   9.035   5.203 -0.0936 -0.0338 -0.0164
    1DIPC   C4A 5048   9.165   9.068   5.464 -0.3516  0.3823 -0.1474
    1DIPC   C1B 5049   9.374   9.583   5.512 -0.1472  0.1762 -0.1104
    1DIPC   D2B 5050   9.397   9.619   5.064 -0.1145  0.0803 -0.0341
    1DIPC   D3B 5051   9.692   9.497   4.838  0.0090 -0.0300  0.1036
    1DIPC   C4B 5052   9.936   9.145   4.901 -0.0023 -0.0000  0.0306
    1DIPC   NC3 5053  14.623  25.161   7.101 -0.1631  0.0257 -0.1856
    1DIPC   PO4 5054  14.601  25.495   6.831 -0.3345  0.1130 -0.1654
    1DIPC   GL1 5055  14.457  25.610   6.437  0.3324  0.0111 -0.0246
    1DIPC   GL2 5056  14.523  25.422   6.165  0.0743  0.2072  0.1409
    1DIPC   C1A 5057  14.086  25.682   6.178  0.2498  0.1657  0.0225
    1DIPC   D2A 5058  13.827  25.413   5.938 -0.1900 -0.2807 -0.0088
    1DIPC   D3A 5059  13.630  25.053   5.871 -0.1011  0.4393  0.0909
    1DIPC   C4A 5060  13.363  24.927   5.621 -0.1348 -0.1529  0.1774
    1DIPC   C1B 5061  14.442  25.484   5.701 -0.1011  0.3705 -0.1876
    1DIPC   D2B 5062  14.430  25.743   5.406  0.2241 -0.1296 -0.0360
    1DIPC   D3B 5063  14.826  26.074   5.319 -0.0554  0.0781  0.1368
    1DIPC   C4B 5064  14.982  26.038   4.975 -0.2091  0.0694  0.1396
    1DIPC   NC3 5065  16.747  20.300   6.259 -0.0016 -0.1319  0.0226
    1DIPC   PO4 5066  16.419  20.525   6.095 -0.0671  0.0264  0.3980
    1DIPC   GL1 5067  16.200  20.660   5.812  0.3285 -0.3753 -0.0478
    1DIPC   GL2 5068  16.079  20.992   5.738 -0.2127  0.2970  0.2487
    1DIPC   C1A 5069  16.225  20.756   5.313 -0.1994 -0.2151  0.5686
    1DIPC   D2A 5070  16.589  20.921   5.077 -0.1974 -0.2811  0.1509
    1DIPC   D3A 5071  16.286  20.694   4.793 -0.0604  0.2237 -0.1569
    1DIPC   C4A 5072  16.227  20.891   4.454 -0.2600  0.4080  0.1336
    1DIPC   C1B 5073  16.336  21.269   5.475  0.0074 -0.0991 -0.1733
    1DIPC   D2B 5074  16.561  21.417   5.230 -0.1585 -0.2620  0.1115
    1DIPC   D3B 5075  16.459  21.694   4.839 -0.0807  0.0510  0.0225
    1DIPC   C4B 5076  16.093  21.725   4.502 -0.3280  0.3407 -0.0476
    1DIPC   NC3 5077   3.142  11.228   6.598 -0.1921 -0.1092  0.0571
    1DIPC   PO4 5078   3.487  10.936   6.525  0.2682  0.1274 -0.0902
    1DIPC   GL1 5079   3.283  10.770   6.244  0.2040 -0.0228 -0.0101
    1DIPC   GL2 5080   3.485  10.690   6.034  0.1311 -0.0785 -0.4601
    1DIPC   C1A 5081   2.888  10.828   6.104  0.0864  0.1074  0.0060
    1DIPC   D2A 5082   2.874  10.762   5.684  0.2826  0.0822  0.0929
    1DIPC   D3A 5083   2.936  10.692   5.321  0.3060  0.1629 -0.0441
    1DIPC   C4A 5084   2.819  10.300   5.149  0.0427 -0.2316 -0.0901
    1DIPC   C1B 5085   3.234  10.437   5.838 -0.0517  0.1171  0.2363
    1DIPC   D2B 5086   2.868  10.177   5.712 -0.0174 -0.2671 -0.3077
    1DIPC   D3B 5087   3.275  10.264   5.372 -0.0035 -0.2840 -0.0249
    1DIPC   C4B 5088   3.165   9.946   5.040 -0.3779 -0.1462  0.2451
    1DIPC   NC3 5089   4.957   0.050   7.322  0.0016 -0.0856  0.0038
    1DIPC   PO4 5090   5.071   0.538   7.288  0.5169  0.3834 -0.1690
    1DIPC   GL1 5091   5.172   0.644   6.929 -0.1493 -0.2952 -0.4010
    1DIPC   GL2 5092   5.083   0.408   6.747  0.4609  0.0131  0.1053
    1DIPC   C1A 5093   5.565   0.492   6.682 -0.1488  0.0181  0.0737
    1DIPC   D2A 5094   5.537   0.145   6.480 -0.0816 -0.0575 -0.1588
    1DIPC   D3A 5095   5.468  30.009   6.583  0.0313 -0.3292 -0.4720
    1DIPC   C4A 5096   5.283  29.639   6.292 -0.1182 -0.0550  0.0929
    1DIPC   C1B 5097   5.069   0.162   6.331  0.1780  0.1373  0.0414
    1DIPC   D2B 5098   5.296  30.224   6.121 -0.0208 -0.0287 -0.1040
    1DIPC   D3B 5099   5.576   0.085   5.868 -0.1635 -0.1070 -0.0047
    1DIPC   C4B 5100   5.865   0.158   5.637  0.0166  0.1460 -0.2509
    1DIPC   NC3 5101  16.443  16.183   6.672  0.1006  0.0708  0.0082
    1DIPC   PO4 5102  15.875  16.107   6.702 -0.0935  0.0070 -0.3604
    1DIPC   GL1 5103  15.611  15.899   6.383 -0.1765 -0.2368  0.0958
    1DIPC   GL2 5104  15.549  16.080   6.118 -0.1161  0.0354 -0.3055
    1DIPC   C1A 5105  15.636  15.540   6.125 -0.0470 -0.4512 -0.0286
    1DIPC   D2A 5106  15.659  15.470   5.734  0.2110 -0.0961 -0.0572
    1DIPC   D3A 5107  15.675  15.739   5.413 -0.0599 -0.1841 -0.2465
    1DIPC   C4A 5108  15.953  15.790   5.158 -0.1171 -0.0953 -0.0824
    1DIPC   C1B 5109  15.390  15.930   5.902 -0.1518  0.1570 -0.0803
    1DIPC   D2B 5110  15.279  16.062   5.489 -0.1725  0.1304 -0.1035
    1DIPC   D3B 5111  15.238  15.636   5.197  0.1836  0.0420 -0.2775
    1DIPC   C4B 5112  15.421  15.231   5.329  0.0541  0.1725 -0.1672
    1DIPC   NC3 5113   5.533  28.293   7.016  0.2370 -0.1004 -0.1189
    1DIPC   PO4 5114   5.197  28.582   6.949 -0.1854 -0.1104  0.0666
    1DIPC   GL1 5115   5.143  28.843   6.577 -0.3115  0.0044  0.2285
    1DIPC   GL2 5116   5.113  29.117   6.731  0.0554 -0.0021 -0.0930
    1DIPC   C1A 5117   4.965  29.104   6.230 -0.1382  0.3337 -0.1738
    1DIPC   D2A 5118   4.932  29.439   5.986  0.0215  0.0537  0.2640
    1DIPC   D3A 5119   5.331  29.468   5.699 -0.0360 -0.0800 -0.4080
    1DIPC   C4A 5120   5.432  29.359   5.282  0.0767 -0.1208 -0.2932
    1DIPC   C1B 5121   5.428  29.228   6.392 -0.2605  0.1389  0.0902
    1DIPC   D2B 5122   5.850  29.410   6.503 -0.1486 -0.0114  0.2436
    1DIPC   D3B 5123   5.860  29.712   6.397  0.1021 -0.3143 -0.2305
    1DIPC   C4B 5124   6.297  29.726   6.172  0.2761 -0.2554 -0.1430
    1DIPC   NC3 5125  29.987   2.331   6.808  0.1211  0.2470 -0.0477
    1DIPC   PO4 5126  30.234   2.021   7.071 -0.1315 -0.3231 -0.0157
    1DIPC   GL1 5127  30.166   1.615   6.866 -0.0669  0.2615 -0.4379
    1DIPC   GL2 5128  30.352   1.293   6.933 -0.3471 -0.1058 -0.0490
    1DIPC   C1A 5129  30.037   1.377   6.575 -0.2570 -0.0673  0.3223
    1DIPC   D2A 5130  29.839   1.086   6.363 -0.1777  0.0776  0.3437
    1DIPC   D3A 5131  29.846   0.760   6.007 -0.0461  0.1954  0.0393
    1DIPC   C4A 5132  29.584   1.067   5.776 -0.0449 -0.0989 -0.0544
    1DIPC   C1B 5133   0.042   0.946   6.739 -0.1183  0.0882  0.0367
    1DIPC   D2B 5134   0.218   0.486   6.535 -0.2887 -0.0791  0.0238
    1DIPC   D3B 5135   0.453   0.859   6.420 -0.3259 -0.2157 -0.1088
    1DIPC   C4B 5136   0.400   1.060   6.053 -0.2012 -0.1556  0.1003
    1DIPC   NC3 5137  14.447  19.478   5.471  0.0176 -0.1343  0.0368
    1DIPC   PO4 5138  14.729  19.306   5.709  0.1512 -0.0947  0.2386
    1DIPC   GL1 5139  15.083  19.104   5.581  0.0286  0.2681 -0.1138
    1DIPC   GL2 5140  15.203  18.811   5.470 -0.0685 -0.0438 -0.2915
    1DIPC   C1A 5141  15.372  19.095   5.138 -0.1037  0.0791 -0.0704
    1DIPC   D2A 5142  15.361  18.656   4.863  0.1728  0.0920  0.0934
    1DIPC   D3A 5143  15.618  18.904   4.662 -0.0719  0.2101 -0.2081
    1DIPC   C4A 5144  15.784  18.903   4.238  0.1470  0.0639  0.1862
    1DIPC   C1B 5145  14.922  18.852   5.134 -0.2886  0.3264 -0.3861
    1DIPC   D2B 5146  14.670  18.835   4.791  0.0762 -0.0712 -0.4357
    1DIPC   D3B 5147  14.675  18.742   4.288  0.3524 -0.2061  0.0785
    1DIPC   C4B 5148  14.905  19.068   4.094  0.2581  0.0872 -0.1535
    1DIPC   NC3 5149   1.283  27.147   7.392 -0.1810 -0.0930  0.0167
    1DIPC   PO4 5150   1.596  27.116   6.965 -0.1352 -0.1807  0.1759
    1DIPC   GL1 5151   1.635  27.054   6.558 -0.0990  0.1238  0.1095
    1DIPC   GL2 5152   1.937  26.975   6.594  0.2355  0.0542  0.1978
    1DIPC   C1A 5153   1.533  27.020   6.077  0.1325 -0.0824 -0.0327
    1DIPC   D2A 5154   1.735  27.085   5.772 -0.2416 -0.2382 -0.2235
    1DIPC   D3A 5155   1.783  27.393   5.444  0.0477 -0.0220  0.1527
    1DIPC   C4A 5156   1.756  27.843   5.366  0.0056 -0.0709 -0.0214
    1DIPC   C1B 5157   2.038  26.872   6.226 -0.0441  0.0912 -0.1093
    1DIPC   D2B 5158   2.209  26.518   5.992 -0.3875  0.0149  0.1604
    1DIPC   D3B 5159   2.121  26.833   5.596 -0.1222 -0.2875  0.0190
    1DIPC   C4B 5160   1.841  26.882   5.299 -0.0193 -0.1944 -0.2118
    1DIPC   NC3 5161  12.336  18.954   5.909 -0.1822 -0.0200 -0.0649
    1DIPC   PO4 5162  12.621  18.877   5.445  0.0257 -0.1452  0.0701
    1DIPC   GL1 5163  12.596  18.661   5.087 -0.3789 -0.1205  0.0683
    1DIPC   GL2 5164  12.771  18.911   4.909 -0.0758  0.2727 -0.1089
    1DIPC   C1A 5165  12.623  18.249   4.822  0.2042 -0.0827 -0.0889
    1DIPC   D2A 5166  12.824  18.141   4.512  0.2015 -0.3436 -0.0545
    1DIPC   D3A 5167  12.906  18.062   4.005  0.0594  0.3107  0.0552
    1DIPC   C4A 5168  13.415  18.105   3.897 -0.1443  0.0469  0.3069
    1DIPC   C1B 5169  12.814  18.663   4.545 -0.4160  0.0038 -0.1831
    1DIPC   D2B 5170  12.910  18.506   4.207  0.0379 -0.2173 -0.0872
    1DIPC   D3B 5171  13.337  18.527   4.159 -0.1059 -0.3079  0.2517
    1DIPC   C4B 5172  13.456  18.954   4.091 -0.1781 -0.1964 -0.0501
    1DIPC   NC3 5173  23.489  28.277   6.730  0.2914 -0.2193  0.3642
    1DIPC   PO4 5174  23.730  27.884   6.815  0.0284  0.2017 -0.0323
    1DIPC   GL1 5175  23.880  27.635   6.521 -0.4415 -0.0332  0.0113
    1DIPC   GL2 5176  23.648  27.401   6.500  0.0156  0.0956  0.1321
    1DIPC   C1A 5177  23.981  27.549   6.030  0.1562 -0.0861 -0.2696
    1DIPC   D2A 5178  24.351  27.589   5.771 -0.0394 -0.0090 -0.1138
    1DIPC   D3A 5179  24.033  27.566   5.497 -0.1140  0.3297  0.0138
    1DIPC   C4A 5180  24.071  27.551   5.016 -0.0377  0.2153  0.0793
    1DIPC   C1B 5181  23.812  27.126   6.243 -0.0518  0.2224 -0.1211
    1DIPC   D2B 5182  24.179  27.014   5.946  0.1738 -0.2100  0.1136
    1DIPC   D3B 5183  24.479  26.988   5.833  0.0107  0.2272 -0.0201
    1DIPC   C4B 5184  24.360  26.676   5.612 -0.1712 -0.3514  0.0724
    1DIPC   NC3 5185   2.797  26.927   7.073 -0.0744 -0.0438 -0.1130
    1DIPC   PO4 5186   3.111  26.746   6.720  0.1124 -0.0379 -0.1325
    1DIPC   GL1 5187   2.950  26.556   6.284 -0.2611 -0.3060  0.0134
    1DIPC   GL2 5188   2.795  26.287   6.328 -0.2540 -0.0363 -0.2048
    1DIPC   C1A 5189   2.656  26.441   5.835  0.1052  0.1619 -0.1713
    1DIPC   D2A 5190   2.672  26.532   5.421 -0.0430 -0.1086  0.0748
    1DIPC   D3A 5191   2.345  26.197   5.428  0.0347  0.2526  0.1108
    1DIPC   C4A 5192   1.941  26.415   5.362  0.0878  0.1713 -0.0285
    1DIPC   C1B 5193   3.044  26.062   6.176  0.0305 -0.0026 -0.0548
    1DIPC   D2B 5194   3.175  25.981   5.754 -0.0250  0.1303 -0.2358
    1DIPC   D3B 5195   2.751  25.943   5.560 -0.1134 -0.1543 -0.0379
    1DIPC   C4B 5196   2.674  25.749   5.208 -0.0628 -0.0078  0.0444
    1DIPC   NC3 5197   7.292  10.728   6.940  0.1748  0.1532 -0.3041
    1DIPC   PO4 5198   7.164  11.044   6.670  0.3233 -0.0358  0.0860
    1DIPC   GL1 5199   7.359  11.020   6.283 -0.0956 -0.0393 -0.1081
    1DIPC   GL2 5200   7.545  11.348   6.159  0.2014 -0.0046 -0.1180
    1DIPC   C1A 5201   7.356  10.913   5.865  0.0861  0.2070 -0.1442
    1DIPC   D2A 5202   7.187  10.617   5.445 -0.1299 -0.0661  0.3355
    1DIPC   D3A 5203   7.242  10.283   5.162 -0.0692 -0.1693  0.1286
    1DIPC   C4A 5204   7.007  10.221   4.912  0.0039  0.3046  0.0297
    1DIPC   C1B 5205   7.712  11.328   5.803 -0.0528  0.2177 -0.1095
    1DIPC   D2B 5206   7.891  11.421   5.387  0.0081  0.1262  0.1156
    1DIPC   D3B 5207   7.468  11.522   5.336  0.0621  0.3979 -0.0099
    1DIPC   C4B 5208   7.284  11.138   5.327  0.2750 -0.1746 -0.1381
    1DIPC   NC3 5209  11.327  17.781   5.977 -0.0775  0.2605  0.1560
    1DIPC   PO4 5210  11.371  18.205   5.846  0.3108  0.2838  0.0290
    1DIPC   GL1 5211  11.770  18.228   5.429 -0.1990  0.0515  0.1754
    1DIPC   GL2 5212  11.773  18.531   5.227 -0.3444  0.1484  0.2217
    1DIPC   C1A 5213  11.748  18.081   4.963  0.3109  0.0786  0.1664
    1DIPC   D2A 5214  11.865  17.905   4.588  0.1506 -0.1026  0.0009
    1DIPC   D3A 5215  11.658  18.265   4.410 -0.0641 -0.2538  0.1782
    1DIPC   C4A 5216  11.457  18.549   4.055 -0.0648  0.2770  0.0727
    1DIPC   C1B 5217  12.007  18.676   4.922 -0.0201  0.0987  0.0238
    1DIPC   D2B 5218  12.208  18.523   4.533  0.2837  0.2755 -0.0467
    1DIPC   D3B 5219  11.877  18.702   4.412 -0.2833 -0.2852  0.1056
    1DIPC   C4B 5220  11.349  18.697   4.538  0.0199 -0.0511 -0.1707
    1DIPC   NC3 5221  19.125  15.316   6.707 -0.1492 -0.2165 -0.1154
    1DIPC   PO4 5222  19.250  15.083   6.397 -0.0942  0.1099  0.0169
    1DIPC   GL1 5223  19.139  15.020   5.998 -0.1519 -0.0847  0.0083
    1DIPC   GL2 5224  19.011  15.324   5.902 -0.1824  0.0203 -0.0176
    1DIPC   C1A 5225  19.029  14.736   5.648 -0.0769 -0.1185  0.3543
    1DIPC   D2A 5226  19.150  14.647   5.136  0.1862 -0.2270 -0.2250
    1DIPC   D3A 5227  19.029  14.183   5.005 -0.0708 -0.2497  0.0079
    1DIPC   C4A 5228  18.853  14.127   4.624 -0.0079  0.0816 -0.0833
    1DIPC   C1B 5229  18.790  15.279   5.550  0.2086 -0.2839 -0.0947
    1DIPC   D2B 5230  18.926  15.112   5.134  0.3673 -0.0949  0.0605
    1DIPC   D3B 5231  18.535  15.278   4.950  0.0855  0.1983  0.0689
    1DIPC   C4B 5232  18.364  14.812   4.852 -0.0646 -0.0030  0.3275
    1DIPC   NC3 5233  15.968  22.359   6.159  0.1290 -0.0524 -0.1104
    1DIPC   PO4 5234  16.161  21.905   6.174 -0.0343 -0.1927 -0.4487
    1DIPC   GL1 5235  16.206  21.806   5.733 -0.0733  0.0641  0.0031
    1DIPC   GL2 5236  15.951  21.535   5.569  0.1745  0.1336  0.0533
    1DIPC   C1A 5237  16.114  22.032   5.376  0.1407  0.0713  0.0676
    1DIPC   D2A 5238  16.145  22.154   4.859 -0.2848 -0.3549  0.2673
    1DIPC   D3A 5239  16.548  22.471   4.844 -0.1734  0.2650 -0.0679
    1DIPC   C4A 5240  16.587  22.576   4.426 -0.0189 -0.1743  0.2569
    1DIPC   C1B 5241  15.915  21.253   5.287 -0.0243  0.0201 -0.4021
    1DIPC   D2B 5242  16.107  21.146   4.906 -0.0068 -0.0980  0.1050
    1DIPC   D3B 5243  15.846  21.208   4.595  0.0618  0.1144 -0.2670
    1DIPC   C4B 5244  15.721  21.448   4.271  0.2684  0.0802 -0.1719
    1DIPC   NC3 5245   7.966  29.779   6.955  0.1527 -0.0394 -0.3061
    1DIPC   PO4 5246   7.883  30.200   6.944  0.0535 -0.0047  0.1854
    1DIPC   GL1 5247   8.092  30.215   6.656  0.0411  0.0066 -0.1532
    1DIPC   GL2 5248   8.137   0.152   6.598  0.2168  0.4831 -0.3935
    1DIPC   C1A 5249   8.143  30.096   6.280  0.0222 -0.0290 -0.3658
    1DIPC   D2A 5250   8.258  30.099   5.840 -0.1150  0.0072  0.1411
    1DIPC   D3A 5251   8.134  29.669   5.710 -0.0279 -0.0889 -0.0079
    1DIPC   C4A 5252   8.230  29.285   5.534 -0.2272 -0.0082  0.1552
    1DIPC   C1B 5253   8.237   0.261   6.180  0.2551  0.0951  0.0225
    1DIPC   D2B 5254   7.884   0.088   5.851 -0.1073  0.0164  0.1439
    1DIPC   D3B 5255   7.751   0.320   5.520  0.2336  0.0980  0.1612
    1DIPC   C4B 5256   7.514   0.668   5.430 -0.1723  0.2814 -0.2435
    1DIPC   NC3 5257  20.002   3.712   7.082  0.2892  0.0145 -0.0054
    1DIPC   PO4 5258  20.325   3.919   6.897  0.0425 -0.4719 -0.0638
    1DIPC   GL1 5259  20.383   3.785   6.444  0.1297  0.1455  0.0100
    1DIPC   GL2 5260  20.654   3.924   6.320  0.2824  0.1072 -0.3533
    1DIPC   C1A 5261  20.265   3.668   6.093 -0.1424  0.1881 -0.4024
    1DIPC   D2A 5262  20.050   3.759   5.698 -0.2220  0.1568  0.0642
    1DIPC   D3A 5263  19.834   3.595   5.459 -0.1496  0.1060  0.0311
    1DIPC   C4A 5264  19.407   3.503   5.706  0.2286 -0.1803  0.1526
    1DIPC   C1B 5265  20.539   4.045   5.944 -0.1558  0.1014 -0.0214
    1DIPC   D2B 5266  20.428   4.086   5.538 -0.0351  0.1964  0.0890
    1DIPC   D3B 5267  20.088   3.976   5.194 -0.0287 -0.2253  0.0730
    1DIPC   C4B 5268  19.926   4.328   4.923  0.1167 -0.4279 -0.0228
    1DIPC   NC3 5269  14.902  15.575   6.835 -0.0604  0.0882  0.0192
    1DIPC   PO4 5270  15.278  15.671   6.618 -0.2113 -0.2602 -0.0135
    1DIPC   GL1 5271  15.135  15.627   6.160  0.1977 -0.0623  0.0866
    1DIPC   GL2 5272  14.879  15.667   6.299 -0.0649 -0.2191 -0.0681
    1DIPC   C1A 5273  15.164  15.457   5.730  0.5069  0.0983  0.2531
    1DIPC   D2A 5274  14.881  15.226   5.376 -0.1282 -0.0744 -0.0055
    1DIPC   D3A 5275  14.756  14.818   5.266 -0.0679 -0.2606  0.2276
    1DIPC   C4A 5276  14.772  14.481   4.916  0.0220 -0.0381  0.1215
    1DIPC   C1B 5277  14.799  15.240   6.069  0.1573 -0.3031 -0.0931
    1DIPC   D2B 5278  15.106  14.909   5.784  0.2035  0.2962 -0.2336
    1DIPC   D3B 5279  14.610  14.825   5.754 -0.1960  0.1537 -0.3428
    1DIPC   C4B 5280  14.293  14.900   5.444  0.1835  0.0880 -0.1343
    1DIPC   NC3 5281  11.937   9.520   7.191 -0.0651  0.4089  0.2765
    1DIPC   PO4 5282  12.204   9.150   7.058 -0.2105 -0.0464 -0.0703
    1DIPC   GL1 5283  12.297   9.552   6.816 -0.2801  0.3188  0.0724
    1DIPC   GL2 5284  12.018   9.473   6.580 -0.2567 -0.0969 -0.0224
    1DIPC   C1A 5285  12.332   9.949   6.516 -0.2751 -0.3351  0.1028
    1DIPC   D2A 5286  12.356  10.212   6.081  0.2369  0.1321  0.1307
    1DIPC   D3A 5287  12.223  10.149   5.655  0.1494 -0.0066  0.1640
    1DIPC   C4A 5288  12.407   9.865   5.293 -0.1142 -0.0470 -0.1023
    1DIPC   C1B 5289  12.366   9.545   6.290  0.0408 -0.3035  0.1115
    1DIPC   D2B 5290  12.558   9.791   5.886  0.0343 -0.1444 -0.0760
    1DIPC   D3B 5291  12.864   9.972   5.670 -0.0135  0.2652 -0.0181
    1DIPC   C4B 5292  12.925   9.713   5.271  0.1264 -0.1813 -0.0175
    1DIPC   NC3 5293  17.649  21.919   6.633  0.2561 -0.0491  0.1760
    1DIPC   PO4 5294  17.823  21.722   6.260  0.0837  0.0790 -0.1646
    1DIPC   GL1 5295  17.819  21.620   5.866 -0.0630  0.0873  0.1069
    1DIPC   GL2 5296  17.573  21.394   5.698  0.0713  0.2176 -0.1289
    1DIPC   C1A 5297  17.715  21.827   5.552  0.1645 -0.2727  0.2969
    1DIPC   D2A 5298  17.798  22.020   5.145  0.1216  0.0852 -0.0032
    1DIPC   D3A 5299  18.130  21.756   4.882  0.0473 -0.0196 -0.0059
    1DIPC   C4A 5300  18.478  21.857   5.011  0.1560 -0.0045  0.1778
    1DIPC   C1B 5301  17.553  21.143   5.415 -0.0605 -0.1751  0.0221
    1DIPC   D2B 5302  17.505  20.830   5.172 -0.2200 -0.5059  0.1937
    1DIPC   D3B 5303  17.685  20.900   4.644 -0.1324  0.0726 -0.1110
    1DIPC   C4B 5304  18.096  20.640   4.425  0.1794 -0.1607  0.1797
    1DIPC   NC3 5305  22.347  25.549   6.434  0.3084  0.0433 -0.2599
    1DIPC   PO4 5306  22.636  25.381   6.111  0.0525 -0.0645 -0.0306
    1DIPC   GL1 5307  22.863  25.674   5.827  0.5175 -0.1616 -0.0550
    1DIPC   GL2 5308  23.121  25.846   5.984  0.5838 -0.1508  0.2090
    1DIPC   C1A 5309  22.843  25.755   5.401 -0.4982 -0.2834  0.1638
    1DIPC   D2A 5310  22.515  25.862   5.043 -0.0369  0.1925  0.0262
    1DIPC   D3A 5311  22.426  26.144   5.318  0.3199  0.1427 -0.1456
    1DIPC   C4A 5312  22.376  25.817   5.720  0.0821 -0.0265  0.0123
    1DIPC   C1B 5313  23.311  25.872   5.516 -0.0416 -0.0797  0.0336
    1DIPC   D2B 5314  23.309  25.948   5.066  0.4146  0.1035 -0.4881
    1DIPC   D3B 5315  22.947  25.887   4.746 -0.0311 -0.0646 -0.1041
    1DIPC   C4B 5316  22.797  25.500   4.593 -0.0998 -0.3818 -0.3466
    1DIPC   NC3 5317   0.758   8.644   7.001 -0.0326  0.1104  0.1807
    1DIPC   PO4 5318   0.809   9.019   6.895 -0.0108  0.0797  0.0153
    1DIPC   GL1 5319   0.985   8.879   6.528  0.0834  0.0741 -0.5196
    1DIPC   GL2 5320   1.020   8.588   6.400  0.0355  0.0097  0.0936
    1DIPC   C1A 5321   1.037   8.923   6.083  0.1283 -0.0843  0.0128
    1DIPC   D2A 5322   1.105   9.023   5.620 -0.0205 -0.2092  0.1496
    1DIPC   D3A 5323   1.440   9.216   5.434 -0.0595 -0.0998  0.0166
    1DIPC   C4A 5324   1.615   9.032   5.071 -0.0596  0.0918  0.1348
    1DIPC   C1B 5325   1.337   8.450   6.061  0.2858 -0.0591  0.1280
    1DIPC   D2B 5326   1.495   8.174   5.673  0.1657  0.4158  0.0176
    1DIPC   D3B 5327   1.406   8.579   5.529 -0.2847 -0.1746 -0.2571
    1DIPC   C4B 5328   1.334   8.607   5.098 -0.0875  0.1804 -0.1753
    1DIPC   NC3 5329  18.159   7.391   6.267 -0.0829  0.1327  0.5520
    1DIPC   PO4 5330  18.092   7.294   5.814 -0.2382 -0.0547  0.1993
    1DIPC   GL1 5331  18.164   7.238   5.434  0.2998  0.4176 -0.1368
    1DIPC   GL2 5332  18.309   6.907   5.320  0.3176  0.1244 -0.1346
    1DIPC   C1A 5333  18.552   7.308   5.115  0.0186 -0.2378  0.0786
    1DIPC   D2A 5334  18.785   6.913   5.063 -0.2252 -0.2408 -0.1887
    1DIPC   D3A 5335  18.874   6.870   5.431 -0.0797 -0.0315  0.0846
    1DIPC   C4A 5336  18.691   6.427   5.481  0.2370 -0.2309 -0.1581
    1DIPC   C1B 5337  18.210   6.990   4.891 -0.1651  0.3303 -0.3205
    1DIPC   D2B 5338  18.414   6.836   4.447  0.1411 -0.1464  0.2791
    1DIPC   D3B 5339  18.394   6.930   4.015  0.0605  0.0396  0.0474
    1DIPC   C4B 5340  18.814   7.096   3.939  0.3344  0.0882  0.3020
    1DIPC   NC3 5341  19.635  25.426   6.249  0.1445  0.6407  0.0438
    1DIPC   PO4 5342  19.996  25.142   6.124 -0.0509  0.1356  0.2005
    1DIPC   GL1 5343  19.924  25.270   5.770 -0.0077 -0.1107  0.0782
    1DIPC   GL2 5344  19.620  25.055   5.817 -0.3230 -0.1141 -0.2496
    1DIPC   C1A 5345  20.017  25.454   5.381  0.0286  0.2619 -0.1639
    1DIPC   D2A 5346  20.047  25.603   4.929 -0.2341  0.1184  0.0249
    1DIPC   D3A 5347  19.680  25.541   4.549  0.1577  0.0293  0.2654
    1DIPC   C4A 5348  19.472  25.124   4.379  0.1805 -0.0662 -0.1255
    1DIPC   C1B 5349  19.513  25.093   5.380 -0.0812  0.0306 -0.1232
    1DIPC   D2B 5350  19.443  24.849   5.086  0.2486  0.0071  0.2050
    1DIPC   D3B 5351  19.935  24.853   5.166 -0.1503  0.2480  0.2279
    1DIPC   C4B 5352  20.247  24.580   5.014  0.2494  0.1914  0.1797
    1DIPC   NC3 5353  29.915   3.801   7.323  0.0679 -0.0406  0.0603
    1DIPC   PO4 5354  30.132   3.454   6.956 -0.2676 -0.2271  0.0681
    1DIPC   GL1 5355  29.956   3.328   6.595  0.1630 -0.2056  0.1447
    1DIPC   GL2 5356  29.677   3.150   6.750  0.4463 -0.0163  0.0450
    1DIPC   C1A 5357  30.217   3.297   6.199 -0.1334 -0.0935 -0.0440
    1DIPC   D2A 5358   0.113   3.149   5.851 -0.1411 -0.0448  0.1199
    1DIPC   D3A 5359   0.037   3.626   5.734  0.2322 -0.0394 -0.2721
    1DIPC   C4A 5360  30.285   3.783   5.254 -0.0655 -0.0823  0.1265
    1DIPC   C1B 5361  29.541   2.838   6.529  0.1974  0.0840 -0.3255
    1DIPC   D2B 5362  29.708   2.412   6.312 -0.2791  0.1018  0.1487
    1DIPC   D3B 5363  29.857   2.557   5.833  0.3453 -0.0448 -0.3750
    1DIPC   C4B 5364  30.053   2.811   5.501  0.0664  0.1657 -0.1849
    1DIPC   NC3 5365  18.004   2.173   6.933 -0.0164  0.1673 -0.1589
    1DIPC   PO4 5366  17.934   2.377   6.473  0.1387 -0.2831 -0.1286
    1DIPC   GL1 5367  17.956   2.404   5.952 -0.0677 -0.0476 -0.2346
    1DIPC   GL2 5368  17.819   2.756   5.923  0.2243  0.1311 -0.1054
    1DIPC   C1A 5369  17.950   2.459   5.574 -0.2903 -0.0707  0.0513
    1DIPC   D2A 5370  17.780   2.291   5.208 -0.1026 -0.0113 -0.2912
    1DIPC   D3A 5371  17.546   2.055   4.820  0.0945  0.3896 -0.1533
    1DIPC   C4A 5372  17.423   2.436   4.570 -0.0984 -0.0547 -0.0169
    1DIPC   C1B 5373  17.787   3.100   5.710 -0.0581 -0.2663  0.0523
    1DIPC   D2B 5374  17.594   3.512   5.573  0.1548 -0.0264  0.0221
    1DIPC   D3B 5375  17.811   3.643   5.295  0.1639 -0.1850  0.3241
    1DIPC   C4B 5376  17.909   3.741   4.837  0.3913  0.1712  0.3258
    1DIPC   NC3 5377   6.951   7.233   6.672  0.0882  0.5024 -0.3052
    1DIPC   PO4 5378   7.281   6.812   6.795  0.1093 -0.1481  0.1460
    1DIPC   GL1 5379   7.568   6.988   6.432 -0.1193  0.0985  0.0746
    1DIPC   GL2 5380   7.781   6.775   6.284 -0.1659  0.1420 -0.2432
    1DIPC   C1A 5381   7.698   7.353   6.169 -0.1330  0.1157  0.3219
    1DIPC   D2A 5382   7.832   7.413   5.822  0.0227 -0.3189  0.1384
    1DIPC   D3A 5383   7.343   7.346   5.811 -0.0146 -0.3569  0.0480
    1DIPC   C4A 5384   7.132   7.096   5.545 -0.0015  0.0488  0.2502
    1DIPC   C1B 5385   7.613   6.918   5.864  0.0111  0.0557  0.1102
    1DIPC   D2B 5386   7.689   6.996   5.490  0.1417  0.2454 -0.0851
    1DIPC   D3B 5387   7.952   6.581   5.306  0.0699  0.0306 -0.3006
    1DIPC   C4B 5388   8.146   6.186   5.312  0.4675  0.2147 -0.4663
    1DIPC   NC3 5389   2.395  24.830   7.340 -0.0896  0.2071 -0.1232
    1DIPC   PO4 5390   2.142  25.015   6.985  0.0468  0.1916 -0.1055
    1DIPC   GL1 5391   1.988  25.145   6.592 -0.0061 -0.1605 -0.0941
    1DIPC   GL2 5392   1.946  24.739   6.497 -0.4767  0.0192 -0.1266
    1DIPC   C1A 5393   2.162  24.994   6.105 -0.0470 -0.1034 -0.0533
    1DIPC   D2A 5394   2.019  24.805   5.756 -0.1301  0.0304  0.1760
    1DIPC   D3A 5395   1.692  24.659   5.985  0.0714 -0.0074 -0.0212
    1DIPC   C4A 5396   1.559  24.365   6.178 -0.1866 -0.1533 -0.0202
    1DIPC   C1B 5397   2.423  24.565   6.553  0.0410  0.1230  0.0184
    1DIPC   D2B 5398   2.785  24.683   6.328  0.1161 -0.0005 -0.1485
    1DIPC   D3B 5399   2.464  24.585   5.991  0.1122 -0.0721 -0.1852
    1DIPC   C4B 5400   2.069  24.366   6.240  0.2181  0.0388  0.3383
    1DIPC   NC3 5401  13.835   6.083   6.702  0.3549  0.0705 -0.1194
    1DIPC   PO4 5402  13.784   5.787   6.378  0.1588  0.1372 -0.0418
    1DIPC   GL1 5403  13.685   5.885   5.879 -0.0352 -0.0477 -0.2032
    1DIPC   GL2 5404  13.331   5.871   5.825  0.1814  0.1045  0.0168
    1DIPC   C1A 5405  13.810   5.945   5.475  0.0626  0.1158  0.2260
    1DIPC   D2A 5406  13.947   5.775   5.118  0.4276  0.0590  0.1550
    1DIPC   D3A 5407  14.200   5.673   4.799 -0.2756  0.4494 -0.2616
    1DIPC   C4A 5408  14.360   5.436   4.525 -0.0001  0.4490 -0.0307
    1DIPC   C1B 5409  13.258   5.710   5.381  0.0615 -0.1928 -0.3830
    1DIPC   D2B 5410  13.421   5.500   5.081 -0.1392  0.0649  0.1068
    1DIPC   D3B 5411  13.446   5.807   4.758 -0.3569 -0.2351 -0.2314
    1DIPC   C4B 5412  13.844   6.022   4.669 -0.0374  0.1788 -0.2510
    1DIPC   NC3 5413  21.020  22.344   5.570  0.2918 -0.1440  0.2701
    1DIPC   PO4 5414  21.429  22.051   5.603 -0.0130  0.0027  0.1139
    1DIPC   GL1 5415  21.738  22.148   5.346  0.0837  0.2067  0.2035
    1DIPC   GL2 5416  21.828  21.820   5.136 -0.4471  0.0691  0.0043
    1DIPC   C1A 5417  21.901  22.268   4.968 -0.0376  0.0989 -0.0251
    1DIPC   D2A 5418  21.865  22.487   4.633  0.2803  0.3691 -0.0003
    1DIPC   D3A 5419  22.025  22.436   4.263 -0.1224  0.0120  0.4806
    1DIPC   C4A 5420  22.363  22.832   4.094  0.1381 -0.0067  0.1838
    1DIPC   C1B 5421  21.599  21.802   4.775  0.0115  0.0848 -0.1199
    1DIPC   D2B 5422  21.520  21.762   4.360  0.2002  0.0950  0.3666
    1DIPC   D3B 5423  21.520  21.335   4.375  0.1181  0.2124 -0.0234
    1DIPC   C4B 5424  21.732  21.124   3.995 -0.1364  0.0240 -0.0716
    1DIPC   NC3 5425   1.585  29.472   7.267 -0.0304 -0.2166  0.2074
    1DIPC   PO4 5426   1.887  29.783   7.222  0.0739 -0.1269  0.0872
    1DIPC   GL1 5427   1.938  29.773   6.831  0.3389 -0.2352  0.0704
    1DIPC   GL2 5428   1.940  30.131   6.694  0.0143  0.0755  0.2875
    1DIPC   C1A 5429   1.968  29.761   6.383  0.1030 -0.0610  0.0659
    1DIPC   D2A 5430   1.702  29.545   6.209 -0.0279 -0.1683  0.0759
    1DIPC   D3A 5431   1.900  29.784   5.850  0.0058  0.0359 -0.0081
    1DIPC   C4A 5432   2.379  29.906   5.728 -0.3584  0.0567  0.0970
    1DIPC   C1B 5433   2.106   0.148   6.422  0.0212  0.0588  0.0930
    1DIPC   D2B 5434   2.447   0.470   6.200 -0.1904  0.0351  0.2349
    1DIPC   D3B 5435   2.719   0.428   5.746  0.2778  0.2074 -0.3625
    1DIPC   C4B 5436   2.646  30.354   5.406  0.1986  0.2901 -0.1073
    1DIPC   NC3 5437  11.275  28.353   7.003 -0.0830  0.0638  0.3855
    1DIPC   PO4 5438  11.249  28.876   6.959 -0.1277 -0.4482  0.1107
    1DIPC   GL1 5439  11.124  28.835   6.557 -0.1574 -0.1809  0.2796
    1DIPC   GL2 5440  11.049  29.145   6.369 -0.0254  0.0275  0.0516
    1DIPC   C1A 5441  10.869  28.729   6.231  0.2561 -0.2152  0.3647
    1DIPC   D2A 5442  10.970  28.817   5.824 -0.0840  0.0779  0.0429
    1DIPC   D3A 5443  10.910  28.977   5.355  0.0931  0.0531  0.3144
    1DIPC   C4A 5444  10.774  28.837   4.944 -0.0759  0.5701 -0.1159
    1DIPC   C1B 5445  10.737  29.231   6.078  0.0136  0.1731  0.1310
    1DIPC   D2B 5446  10.627  29.278   5.716 -0.3525 -0.0101  0.1276
    1DIPC   D3B 5447  10.980  29.445   5.488 -0.3108  0.0290  0.0144
    1DIPC   C4B 5448  10.805  29.682   5.036 -0.0504  0.1464  0.0549
    1DIPC   NC3 5449  19.574   4.610   6.529  0.1687  0.1104  0.2342
    1DIPC   PO4 5450  19.487   5.073   6.421 -0.2721 -0.0716 -0.0468
    1DIPC   GL1 5451  19.621   5.211   6.009 -0.1778  0.0906 -0.1654
    1DIPC   GL2 5452  19.743   5.548   5.933  0.0164 -0.1012  0.2333
    1DIPC   C1A 5453  19.608   4.993   5.543  0.0342 -0.0396 -0.3162
    1DIPC   D2A 5454  19.724   4.866   5.124  0.0522 -0.0482  0.1604
    1DIPC   D3A 5455  20.139   4.856   5.170 -0.3084 -0.0531  0.1019
    1DIPC   C4A 5456  20.323   4.444   5.169  0.0197  0.2954 -0.4431
    1DIPC   C1B 5457  19.746   5.464   5.457 -0.0922  0.2742 -0.1023
    1DIPC   D2B 5458  19.833   5.329   5.082 -0.0716  0.0481 -0.0179
    1DIPC   D3B 5459  19.633   5.215   4.713  0.3330  0.0193 -0.0763
    1DIPC   C4B 5460  19.815   5.271   4.354 -0.0186 -0.2473 -0.0707
    1DIPC   NC3 5461  27.514   4.728   7.441 -0.0631 -0.1745 -0.1848
    1DIPC   PO4 5462  27.193   4.725   7.380  0.2534 -0.0429 -0.1895
    1DIPC   GL1 5463  27.355   5.100   7.050  0.2761  0.1094  0.2132
    1DIPC   GL2 5464  27.098   5.047   6.647 -0.1767  0.4879  0.1076
    1DIPC   C1A 5465  27.425   5.469   6.603  0.0249  0.1092 -0.2958
    1DIPC   D2A 5466  27.552   5.878   6.320 -0.0068  0.1434 -0.2672
    1DIPC   D3A 5467  27.446   5.661   5.996  0.0482  0.3949 -0.0703
    1DIPC   C4A 5468  27.441   5.869   5.655 -0.0266  0.1206  0.0189
    1DIPC   C1B 5469  27.197   5.256   6.203 -0.0116  0.0651 -0.0303
    1DIPC   D2B 5470  27.177   5.221   5.777 -0.1127  0.3338 -0.0146
    1DIPC   D3B 5471  26.683   5.155   5.787  0.0419  0.1191  0.1381
    1DIPC   C4B 5472  26.594   4.867   6.032 -0.2066 -0.0010 -0.0033
    1DIPC   NC3 5473   9.441   4.144   6.759  0.1086 -0.0715  0.2461
    1DIPC   PO4 5474   9.579   4.525   6.571  0.0104  0.2282 -0.0012
    1DIPC   GL1 5475   9.710   4.530   6.143  0.2577  0.0402  0.1690
    1DIPC   GL2 5476   9.497   4.649   5.976  0.2200 -0.0986  0.0678
    1DIPC   C1A 5477   9.671   4.211   5.935 -0.1589  0.1437  0.2716
    1DIPC   D2A 5478   9.881   4.200   5.519  0.1981 -0.2990 -0.0043
    1DIPC   D3A 5479   9.906   4.631   5.627  0.3109  0.0367 -0.3086
    1DIPC   C4A 5480   9.484   4.827   5.466  0.0217  0.0054  0.0956
    1DIPC   C1B 5481   9.245   4.440   5.674 -0.3634  0.3865  0.0321
    1DIPC   D2B 5482   9.474   4.376   5.238 -0.3710  0.1210  0.1504
    1DIPC   D3B 5483   9.836   4.569   5.098  0.0491 -0.0434 -0.1771
    1DIPC   C4B 5484  10.005   4.788   4.696  0.4395 -0.2407 -0.1274
    1DIPC   NC3 5485  19.793   7.784   6.267 -0.3226  0.1178  0.1869
    1DIPC   PO4 5486  19.476   7.718   6.094  0.1393  0.1583 -0.1792
    1DIPC   GL1 5487  19.427   7.617   5.585  0.0018  0.1488 -0.0426
    1DIPC   GL2 5488  19.217   7.281   5.492  0.0695  0.5450 -0.1473
    1DIPC   C1A 5489  19.495   7.558   5.111 -0.1267 -0.3478 -0.2606
    1DIPC   D2A 5490  19.767   7.353   4.805  0.1060  0.1567  0.0181
    1DIPC   D3A 5491  19.331   7.288   4.623 -0.0668  0.1464  0.0284
    1DIPC   C4A 5492  19.092   6.986   4.426  0.0369 -0.0265  0.1902
    1DIPC   C1B 5493  19.459   7.059   5.307  0.0321  0.0707  0.0973
    1DIPC   D2B 5494  19.274   6.879   4.895 -0.0099 -0.1959 -0.1988
    1DIPC   D3B 5495  19.644   6.884   4.688  0.0698  0.2157  0.0093
    1DIPC   C4B 5496  19.689   7.030   4.306 -0.3139 -0.1636 -0.1738
    1DIPC   NC3 5497  19.413  22.760   6.272 -0.2074  0.1060 -0.0020
    1DIPC   PO4 5498  19.854  22.731   6.284 -0.4506  0.0426 -0.1717
    1DIPC   GL1 5499  19.690  22.975   5.922 -0.2880 -0.1959 -0.1625
    1DIPC   GL2 5500  19.475  22.886   5.779  0.2546 -0.0734  0.0461
    1DIPC   C1A 5501  19.839  23.171   5.520  0.0384 -0.4166  0.1031
    1DIPC   D2A 5502  20.114  23.591   5.418  0.0334  0.2223  0.2304
    1DIPC   D3A 5503  20.151  23.497   4.913  0.0337 -0.0228 -0.1366
    1DIPC   C4A 5504  20.484  23.761   4.711 -0.2473  0.3317 -0.5418
    1DIPC   C1B 5505  19.480  22.891   5.352  0.0088  0.1657 -0.2184
    1DIPC   D2B 5506  19.800  23.078   5.029 -0.0115 -0.2017 -0.1315
    1DIPC   D3B 5507  20.245  23.089   5.232  0.3098 -0.0524 -0.2658
    1DIPC   C4B 5508  20.518  23.496   5.195  0.0833  0.0598  0.2938
    1DIPC   NC3 5509  27.967  27.796   7.291  0.0089  0.2903  0.3880
    1DIPC   PO4 5510  27.604  27.715   7.066 -0.0689  0.1766  0.4096
    1DIPC   GL1 5511  27.774  27.705   6.667  0.1565 -0.3335  0.4813
    1DIPC   GL2 5512  28.051  27.652   6.765  0.1002 -0.0537 -0.1175
    1DIPC   C1A 5513  27.811  27.699   6.215 -0.0156 -0.0823  0.0913
    1DIPC   D2A 5514  27.745  27.344   5.986 -0.0307 -0.3281 -0.1656
    1DIPC   D3A 5515  27.804  27.671   5.639  0.1138  0.1760  0.0190
    1DIPC   C4A 5516  27.871  28.195   5.611  0.1899 -0.0462 -0.0669
    1DIPC   C1B 5517  27.997  28.109   6.472  0.2994  0.1373 -0.0477
    1DIPC   D2B 5518  27.828  28.322   6.069  0.1691  0.0377 -0.4244
    1DIPC   D3B 5519  27.483  28.586   5.944 -0.0880 -0.1087  0.1421
    1DIPC   C4B 5520  27.355  28.470   5.526 -0.2000 -0.0575  0.1319
    1DIPC   NC3 5521  24.195  20.189   6.226  0.2765 -0.1346  0.2530
    1DIPC   PO4 5522  24.072  20.545   5.925  0.1886  0.2481 -0.1614
    1DIPC   GL1 5523  24.169  20.405   5.521 -0.0911 -0.0499 -0.1260
    1DIPC   GL2 5524  24.336  20.129   5.698 -0.1008 -0.0572  0.1437
    1DIPC   C1A 5525  24.334  20.225   5.250  0.2817 -0.2110  0.0202
    1DIPC   D2A 5526  24.172  19.944   4.965 -0.0194  0.0273  0.2665
    1DIPC   D3A 5527  24.017  20.257   4.735 -0.0036 -0.0187  0.3081
    1DIPC   C4A 5528  23.893  20.198   4.399  0.0121 -0.0967 -0.1319
    1DIPC   C1B 5529  24.780  20.120   5.685  0.0811  0.0282 -0.0031
    1DIPC   D2B 5530  25.036  19.747   5.574 -0.0978 -0.2173 -0.4038
    1DIPC   D3B 5531  24.918  19.302   5.464  0.1587  0.3560 -0.2473
    1DIPC   C4B 5532  24.860  19.336   5.048  0.0370 -0.2058 -0.0656
    1DIPC   NC3 5533  23.854  19.273   6.382 -0.1056  0.1187 -0.1670
    1DIPC   PO4 5534  23.659  19.117   5.941 -0.1776  0.0083 -0.0150
    1DIPC   GL1 5535  23.687  18.879   5.586 -0.1305 -0.0291 -0.1238
    1DIPC   GL2 5536  23.811  18.531   5.556 -0.1391  0.3888 -0.1684
    1DIPC   C1A 5537  23.809  19.017   5.216 -0.1398  0.0680 -0.2622
    1DIPC   D2A 5538  23.756  18.880   4.789 -0.0904  0.1600  0.1841
    1DIPC   D3A 5539  23.715  19.274   4.570  0.2304  0.1965 -0.3713
    1DIPC   C4A 5540  24.110  19.361   4.333  0.3224 -0.1465 -0.1458
    1DIPC   C1B 5541  23.874  18.498   5.117 -0.1342 -0.3104 -0.1980
    1DIPC   D2B 5542  23.806  18.308   4.728 -0.0716 -0.4636 -0.1519
    1DIPC   D3B 5543  23.765  18.532   4.344 -0.1892 -0.0661 -0.3450
    1DIPC   C4B 5544  23.924  18.918   4.166  0.0011  0.0396  0.3660
    1DIPC   NC3 5545   2.804   1.907   7.705 -0.2528 -0.0322  0.2761
    1DIPC   PO4 5546   2.716   1.590   7.292  0.1362  0.1596 -0.0664
    1DIPC   GL1 5547   2.806   1.418   6.918 -0.0216 -0.0232 -0.2826
    1DIPC   GL2 5548   2.528   1.241   6.816  0.0639 -0.0950 -0.2663
    1DIPC   C1A 5549   3.029   1.584   6.561  0.2484  0.0278  0.3870
    1DIPC   D2A 5550   2.898   1.551   6.111  0.1013 -0.2134 -0.1519
    1DIPC   D3A 5551   3.290   1.439   5.987 -0.1727  0.1313  0.1009
    1DIPC   C4A 5552   3.313   1.343   5.584 -0.0105 -0.3910  0.1318
    1DIPC   C1B 5553   2.547   1.604   6.513  0.2567  0.0584 -0.1840
    1DIPC   D2B 5554   2.362   2.013   6.382 -0.2180  0.0291  0.0177
    1DIPC   D3B 5555   2.760   2.158   6.364 -0.0100  0.1270 -0.2937
    1DIPC   C4B 5556   2.858   2.448   6.223 -0.1477  0.3844  0.1118
    1DIPC   NC3 5557  14.757  24.392   5.926  0.0551  0.1726 -0.0036
    1DIPC   PO4 5558  14.769  24.799   6.139 -0.0258 -0.0154 -0.0297
    1DIPC   GL1 5559  14.748  24.994   5.722 -0.1029 -0.0761  0.2896
    1DIPC   GL2 5560  14.554  24.780   5.544 -0.0116  0.2262 -0.1659
    1DIPC   C1A 5561  14.585  25.194   5.292  0.1271 -0.0779  0.1742
    1DIPC   D2A 5562  14.635  25.260   4.892 -0.0038  0.0383 -0.1349
    1DIPC   D3A 5563  14.984  25.259   4.814  0.1198 -0.0785  0.1985
    1DIPC   C4A 5564  15.224  25.064   4.400 -0.0103 -0.2733 -0.1926
    1DIPC   C1B 5565  14.778  24.398   5.311  0.3071 -0.0839  0.0276
    1DIPC   D2B 5566  14.850  24.339   4.819 -0.0577  0.1895 -0.0025
    1DIPC   D3B 5567  14.602  24.441   4.516  0.0969 -0.3916 -0.0201
    1DIPC   C4B 5568  14.915  24.637   4.214 -0.1725 -0.1715 -0.0392
    1DIPC   NC3 5569  19.925   1.873   6.664 -0.2294  0.2959 -0.2329
    1DIPC   PO4 5570  20.268   1.828   6.476  0.3780  0.0884 -0.2021
    1DIPC   GL1 5571  20.371   1.785   5.964 -0.0776  0.2912  0.0618
    1DIPC   GL2 5572  20.406   1.506   5.938 -0.1250  0.0756  0.0906
    1DIPC   C1A 5573  20.178   1.737   5.486 -0.0250  0.0505 -0.1562
    1DIPC   D2A 5574  20.202   1.670   5.040 -0.0553 -0.0825  0.0291
    1DIPC   D3A 5575  19.766   1.624   4.832  0.1075  0.1008  0.0590
    1DIPC   C4A 5576  19.675   1.925   5.232 -0.2779 -0.1834 -0.0989
    1DIPC   C1B 5577  20.605   1.407   5.524 -0.4649 -0.2319  0.0838
    1DIPC   D2B 5578  20.393   1.166   5.297 -0.1661 -0.1057  0.2863
    1DIPC   D3B 5579  20.411   0.850   4.896 -0.2041 -0.0235 -0.0570
    1DIPC   C4B 5580  20.688   1.003   4.528 -0.2437  0.2791 -0.1607
    1DIPC   NC3 5581   1.539   7.213   6.940  0.1207  0.2997  0.2205
    1DIPC   PO4 5582   1.436   7.234   6.513  0.2649 -0.2020  0.2304
    1DIPC   GL1 5583   1.318   7.320   6.066 -0.3161 -0.2585 -0.2475
    1DIPC   GL2 5584   1.034   7.301   5.908 -0.1796 -0.0893  0.2584
    1DIPC   C1A 5585   1.447   7.652   5.642  0.0990  0.2407 -0.3323
    1DIPC   D2A 5586   1.785   7.800   5.380  0.1030  0.1451 -0.1304
    1DIPC   D3A 5587   1.977   8.072   5.118  0.2130  0.2064  0.1632
    1DIPC   C4A 5588   1.667   8.248   4.779  0.1707  0.3514 -0.0932
    1DIPC   C1B 5589   1.121   7.348   5.469  0.0665  0.1111  0.0464
    1DIPC   D2B 5590   1.148   7.664   5.130  0.3478  0.0658 -0.1233
    1DIPC   D3B 5591   1.178   7.241   4.845 -0.0431  0.1525  0.2075
    1DIPC   C4B 5592   1.202   6.846   4.452  0.1465  0.0445 -0.1241
    1DIPC   NC3 5593   7.272  29.850   7.005 -0.2204  0.0524  0.0746
    1DIPC   PO4 5594   6.968  29.587   6.799 -0.1336  0.1549 -0.0632
    1DIPC   GL1 5595   6.910  29.554   6.412 -0.1291 -0.2149 -0.0527
    1DIPC   GL2 5596   6.732  29.811   6.345  0.2467  0.0240  0.0516
    1DIPC   C1A 5597   7.127  29.238   6.046  0.1481  0.1874  0.2076
    1DIPC   D2A 5598   7.005  28.862   5.726  0.0810  0.3003 -0.4120
    1DIPC   D3A 5599   6.772  29.216   5.537 -0.5620 -0.0100 -0.0915
    1DIPC   C4A 5600   6.407  29.142   5.511  0.0754  0.1953 -0.0868
    1DIPC   C1B 5601   6.595  29.990   5.890 -0.2768 -0.0054 -0.3013
    1DIPC   D2B 5602   6.374  30.149   5.496  0.0348  0.0393 -0.3616
    1DIPC   D3B 5603   6.429   0.239   5.321  0.0361  0.2740  0.0303
    1DIPC   C4B 5604   6.140   0.426   5.111 -0.0209 -0.3096 -0.0113
    1DIPC   NC3 5605  13.384  25.633   6.855  0.0493  0.0532 -0.0521
    1DIPC   PO4 5606  13.622  25.748   6.600 -0.5867 -0.0615 -0.0404
    1DIPC   GL1 5607  13.496  25.738   6.127  0.1364  0.2041  0.0743
    1DIPC   GL2 5608  13.635  25.945   5.882  0.1731  0.0940  0.0337
    1DIPC   C1A 5609  12.950  25.628   6.100 -0.0394 -0.5413 -0.1532
    1DIPC   D2A 5610  12.622  25.655   5.811  0.0364  0.0308 -0.2093
    1DIPC   D3A 5611  12.725  26.037   5.483 -0.0804 -0.0993 -0.2191
    1DIPC   C4A 5612  12.733  26.387   5.712 -0.1507  0.1073  0.1386
    1DIPC   C1B 5613  13.831  25.839   5.531 -0.1776 -0.0056 -0.2910
    1DIPC   D2B 5614  14.270  26.185   5.355  0.1761 -0.0206  0.0189
    1DIPC   D3B 5615  13.902  26.155   5.011 -0.1772  0.2003 -0.1160
    1DIPC   C4B 5616  13.759  25.868   4.950 -0.0258 -0.2180 -0.0490
    1DIPC   NC3 5617  22.746  11.086   5.927 -0.0623  0.1425  0.0978
    1DIPC   PO4 5618  23.073  11.247   5.735  0.0244  0.2018 -0.0604
    1DIPC   GL1 5619  23.181  11.009   5.286 -0.1237 -0.0537 -0.0534
    1DIPC   GL2 5620  23.451  10.821   5.294  0.0164 -0.2077 -0.1506
    1DIPC   C1A 5621  23.163  10.883   4.874  0.4072  0.3078 -0.0329
    1DIPC   D2A 5622  22.889  10.907   4.539 -0.2072  0.0337  0.1026
    1DIPC   D3A 5623  22.686  10.612   4.349 -0.3207 -0.0767  0.1588
    1DIPC   C4A 5624  22.371  10.732   4.149  0.0635 -0.1974  0.0549
    1DIPC   C1B 5625  23.655  11.016   4.973 -0.0910  0.3512 -0.2040
    1DIPC   D2B 5626  23.831  11.052   4.695  0.0230  0.4828  0.1734
    1DIPC   D3B 5627  24.008  11.310   4.465  0.0298 -0.2254  0.0561
    1DIPC   C4B 5628  24.268  11.273   4.116 -0.3617 -0.4353  0.2067
    1DIPC   NC3 5629  21.494  25.878   6.742 -0.0843 -0.1672 -0.0520
    1DIPC   PO4 5630  21.661  25.735   6.270 -0.2598  0.0279  0.0991
    1DIPC   GL1 5631  21.417  26.045   5.965 -0.0194  0.2378  0.3906
    1DIPC   GL2 5632  21.579  26.342   5.922  0.2110  0.0502  0.2500
    1DIPC   C1A 5633  21.389  26.083   5.486 -0.0755 -0.0766 -0.5792
    1DIPC   D2A 5634  21.031  26.200   5.130  0.2327  0.2651  0.1641
    1DIPC   D3A 5635  20.781  25.914   4.976  0.1672 -0.0811  0.1486
    1DIPC   C4A 5636  20.376  25.805   5.206  0.2127 -0.0843 -0.0796
    1DIPC   C1B 5637  21.655  26.508   5.595  0.3379 -0.0145 -0.0906
    1DIPC   D2B 5638  21.325  26.541   5.304 -0.1532 -0.2862  0.2613
    1DIPC   D3B 5639  21.092  26.764   4.942 -0.0424 -0.2594 -0.1599
    1DIPC   C4B 5640  20.827  27.135   5.027  0.1822 -0.1850  0.1061
    1DIPC   NC3 5641  22.808  28.658   6.590 -0.3427 -0.1396 -0.1137
    1DIPC   PO4 5642  23.276  28.717   6.718  0.0648  0.1659  0.0483
    1DIPC   GL1 5643  23.298  28.549   6.351  0.0721 -0.2361 -0.0293
    1DIPC   GL2 5644  23.026  28.747   6.188  0.0260  0.0617  0.3768
    1DIPC   C1A 5645  23.467  28.720   5.965  0.0668 -0.0309 -0.2786
    1DIPC   D2A 5646  23.395  29.100   5.778 -0.1429 -0.0594  0.2018
    1DIPC   D3A 5647  23.354  29.125   5.308  0.3237 -0.0252  0.1042
    1DIPC   C4A 5648  23.539  29.516   5.206  0.0389 -0.2657  0.2770
    1DIPC   C1B 5649  22.953  28.679   5.820  0.0934 -0.0272  0.0407
    1DIPC   D2B 5650  22.995  28.463   5.404  0.0219  0.1209 -0.1255
    1DIPC   D3B 5651  23.371  28.669   5.490  0.0935 -0.2181 -0.0585
    1DIPC   C4B 5652  23.695  28.807   5.296 -0.0733 -0.2325  0.1805
    1DIPC   NC3 5653  28.756  27.618   7.421 -0.2216 -0.0639 -0.1321
    1DIPC   PO4 5654  29.009  27.485   7.141 -0.2045  0.0518  0.1292
    1DIPC   GL1 5655  29.009  27.626   6.677 -0.1694 -0.0200 -0.0357
    1DIPC   GL2 5656  28.977  27.929   6.704  0.2138  0.1155 -0.0201
    1DIPC   C1A 5657  28.847  27.665   6.298  0.1438 -0.0159  0.0670
    1DIPC   D2A 5658  28.811  27.762   5.871  0.0787 -0.1575  0.1043
    1DIPC   D3A 5659  28.714  28.165   6.022  0.2353  0.0432 -0.0046
    1DIPC   C4A 5660  28.551  28.426   5.799 -0.0320 -0.2947 -0.0113
    1DIPC   C1B 5661  29.106  28.213   6.407  0.2770  0.1665  0.2408
    1DIPC   D2B 5662  29.272  28.369   6.052 -0.4122 -0.0767  0.0956
    1DIPC   D3B 5663  29.026  28.721   6.186  0.1197 -0.0705 -0.0299
    1DIPC   C4B 5664  29.062  28.726   6.643  0.1310 -0.1686 -0.3949
    1DIPC   NC3 5665  18.027  26.451   6.357  0.2065 -0.1579 -0.0013
    1DIPC   PO4 5666  17.779  26.105   6.234  0.0357  0.1792  0.1431
    1DIPC   GL1 5667  18.064  26.086   5.873  0.1011  0.4069 -0.1186
    1DIPC   GL2 5668  18.333  25.821   5.777 -0.0288  0.0076 -0.1961
    1DIPC   C1A 5669  18.075  26.016   5.356  0.1721 -0.2042  0.1264
    1DIPC   D2A 5670  18.055  25.807   5.019 -0.1396  0.0528 -0.0109
    1DIPC   D3A 5671  18.380  25.990   4.660  0.0896 -0.1598 -0.0336
    1DIPC   C4A 5672  18.399  26.072   4.243  0.0613 -0.1778 -0.1332
    1DIPC   C1B 5673  18.078  25.509   5.496 -0.0914  0.2808 -0.1361
    1DIPC   D2B 5674  17.941  25.110   5.258 -0.0534  0.0696 -0.2456
    1DIPC   D3B 5675  18.111  25.053   4.873 -0.0139 -0.0471 -0.1613
    1DIPC   C4B 5676  18.599  25.064   4.959 -0.0467 -0.0790 -0.1756
    1DIPC   NC3 5677   3.666   0.482   7.068 -0.1920  0.1562 -0.0907
    1DIPC   PO4 5678   4.073   0.693   7.046 -0.1271 -0.0108  0.2564
    1DIPC   GL1 5679   4.319   0.648   6.682 -0.1607 -0.1884 -0.0654
    1DIPC   GL2 5680   4.631   0.799   6.700 -0.0162  0.0973 -0.0255
    1DIPC   C1A 5681   4.493   0.631   6.222 -0.3201 -0.0952  0.0573
    1DIPC   D2A 5682   4.855   0.490   5.978 -0.1097  0.2691  0.2743
    1DIPC   D3A 5683   4.841   0.993   5.957  0.2813 -0.2448  0.1383
    1DIPC   C4A 5684   4.772   1.235   5.572  0.0024  0.3709 -0.1241
    1DIPC   C1B 5685   4.849   1.050   6.397 -0.4672  0.1083 -0.0842
    1DIPC   D2B 5686   5.046   1.380   6.188  0.0629 -0.0901  0.0432
    1DIPC   D3B 5687   5.309   1.042   5.857 -0.0105  0.2654 -0.3694
    1DIPC   C4B 5688   5.380   1.030   5.441 -0.3838  0.4541  0.0671
    1DIPC   NC3 5689   0.613   1.417   7.264 -0.3879 -0.0136 -0.3292
    1DIPC   PO4 5690   0.937   1.112   7.039 -0.0352  0.2304 -0.1728
    1DIPC   GL1 5691   0.758   1.202   6.687 -0.2935 -0.0078  0.0332
    1DIPC   GL2 5692   0.496   1.390   6.783 -0.1580 -0.1347  0.1509
    1DIPC   C1A 5693   0.705   1.389   6.289 -0.1266  0.2925 -0.1061
    1DIPC   D2A 5694   0.667   1.726   5.961  0.0301 -0.1505 -0.0837
    1DIPC   D3A 5695   0.973   1.324   5.816  0.0735 -0.1197 -0.0517
    1DIPC   C4A 5696   0.751   0.873   5.663 -0.0822  0.1335  0.2111
    1DIPC   C1B 5697   0.195   1.348   6.497  0.0936  0.1806 -0.0044
    1DIPC   D2B 5698  30.210   1.177   6.088  0.2409 -0.0662  0.0602
    1DIPC   D3B 5699  30.334   0.833   6.073  0.1213  0.0871 -0.1384
    1DIPC   C4B 5700  30.062   0.666   6.488  0.0672 -0.1345 -0.0166
    1DIPC   NC3 5701   5.370  12.096   6.575  0.0717 -0.1282 -0.1419
    1DIPC   PO4 5702   5.870  12.235   6.521  0.1433  0.2239  0.0253
    1DIPC   GL1 5703   6.119  11.992   6.254 -0.0657 -0.3454  0.2247
    1DIPC   GL2 5704   6.245  12.122   6.114 -0.0361  0.0913  0.1805
    1DIPC   C1A 5705   6.291  11.628   5.947  0.4375 -0.1715 -0.0220
    1DIPC   D2A 5706   6.540  11.432   5.662  0.1176 -0.0519 -0.1460
    1DIPC   D3A 5707   6.835  11.484   5.882 -0.0325 -0.2362  0.2098
    1DIPC   C4A 5708   7.203  11.401   5.778  0.2908  0.0366 -0.0580
    1DIPC   C1B 5709   6.063  12.125   5.745 -0.1890 -0.1003 -0.1345
    1DIPC   D2B 5710   5.785  12.089   5.508  0.0653  0.0511 -0.1256
    1DIPC   D3B 5711   6.061  12.112   5.165 -0.0266  0.0393 -0.1000
    1DIPC   C4B 5712   6.071  11.787   4.859 -0.0640  0.0175  0.1230
    1DIPC   NC3 5713  14.043   5.461   6.153 -0.3630  0.2221  0.0130
    1DIPC   PO4 5714  13.597   5.395   5.997  0.4752 -0.0137 -0.1838
    1DIPC   GL1 5715  13.424   5.340   5.632 -0.0880 -0.2694  0.0411
    1DIPC   GL2 5716  13.220   5.005   5.733 -0.1838 -0.0556  0.2352
    1DIPC   C1A 5717  13.495   5.092   5.365 -0.0378  0.0344  0.0782
    1DIPC   D2A 5718  13.587   4.888   4.926 -0.2253 -0.3493 -0.1096
    1DIPC   D3A 5719  13.281   5.124   4.671 -0.2901 -0.0509  0.1551
    1DIPC   C4A 5720  12.876   4.997   4.699  0.2898 -0.0538  0.1553
    1DIPC   C1B 5721  12.839   4.817   5.430 -0.1161 -0.1241 -0.0929
    1DIPC   D2B 5722  12.550   4.787   5.052  0.0983  0.2465 -0.3455
    1DIPC   D3B 5723  12.347   4.952   4.680  0.0383  0.1856 -0.0244
    1DIPC   C4B 5724  12.553   5.252   4.430 -0.2534 -0.1057  0.0660
    1DIPC   NC3 5725  17.714   1.555   6.162  0.1615 -0.0603 -0.2860
    1DIPC   PO4 5726  18.171   1.594   6.124 -0.0507  0.2155  0.0640
    1DIPC   GL1 5727  17.992   1.683   5.737 -0.2204 -0.0863 -0.0871
    1DIPC   GL2 5728  18.193   1.997   5.671 -0.0064 -0.2894 -0.1456
    1DIPC   C1A 5729  17.877   1.430   5.421 -0.1801 -0.1294 -0.2344
    1DIPC   D2A 5730  17.661   1.126   5.236 -0.1530 -0.0148 -0.0260
    1DIPC   D3A 5731  17.815   1.070   4.759 -0.2611  0.1282  0.0774
    1DIPC   C4A 5732  18.048   0.919   4.654 -0.2325 -0.0774  0.0284
    1DIPC   C1B 5733  18.344   1.833   5.345  0.1821 -0.1735 -0.0030
    1DIPC   D2B 5734  18.459   1.430   5.471 -0.3152  0.0823  0.0903
    1DIPC   D3B 5735  18.365   1.261   5.065 -0.2940  0.3040  0.1897
    1DIPC   C4B 5736  18.535   1.034   4.858  0.0049  0.0341  0.0178
    1DIPC   NC3 5737  11.458   8.706   6.709 -0.1286  0.3324  0.0794
    1DIPC   PO4 5738  11.827   8.458   6.514  0.0833  0.0627 -0.1699
    1DIPC   GL1 5739  11.621   8.481   6.200 -0.1177  0.2702  0.2890
    1DIPC   GL2 5740  11.823   8.753   6.119 -0.0443 -0.1197  0.3342
    1DIPC   C1A 5741  11.270   8.366   6.039  0.3553  0.0313  0.0492
    1DIPC   D2A 5742  10.962   8.697   5.960  0.0240 -0.0057 -0.0560
    1DIPC   D3A 5743  11.150   8.566   5.497  0.1303  0.1070  0.0804
    1DIPC   C4A 5744  11.589   8.512   5.394 -0.2777  0.1057  0.2077
    1DIPC   C1B 5745  11.446   8.829   5.809 -0.2870 -0.0520 -0.2644
    1DIPC   D2B 5746  11.482   8.989   5.432 -0.2253  0.2976 -0.1275
    1DIPC   D3B 5747  11.515   9.169   5.096  0.2080  0.0767  0.0995
    1DIPC   C4B 5748  11.624   8.920   4.830 -0.0611  0.1098  0.3173
    1DIPC   NC3 5749  11.953  13.553   7.535 -0.0171  0.0730 -0.4745
    1DIPC   PO4 5750  12.143  13.261   7.243  0.1382 -0.0904 -0.2690
    1DIPC   GL1 5751  11.986  13.084   6.814  0.0558 -0.0372 -0.2346
    1DIPC   GL2 5752  12.284  12.896   6.792  0.3668  0.0655 -0.0392
    1DIPC   C1A 5753  11.951  13.330   6.463 -0.0972  0.0540  0.0985
    1DIPC   D2A 5754  11.691  13.311   6.139  0.3891 -0.0900  0.0063
    1DIPC   D3A 5755  11.575  13.405   5.666 -0.4866  0.0176  0.0737
    1DIPC   C4A 5756  11.231  13.696   5.520  0.4889 -0.0714  0.1984
    1DIPC   C1B 5757  12.239  12.814   6.280 -0.1462 -0.5526  0.3165
    1DIPC   D2B 5758  12.621  12.902   6.037 -0.0664  0.0446 -0.1924
    1DIPC   D3B 5759  12.794  12.704   5.572 -0.0883 -0.1127 -0.2914
    1DIPC   C4B 5760  13.263  12.489   5.614 -0.0037  0.4312 -0.1612
    1DIPC   NC3 5761  19.792  20.019   5.734 -0.2042 -0.1254  0.4557
    1DIPC   PO4 5762  19.832  20.525   5.859  0.1691  0.1482  0.1373
    1DIPC   GL1 5763  20.095  20.432   5.437 -0.1648 -0.1232 -0.1318
    1DIPC   GL2 5764  20.150  20.166   5.202  0.2070  0.1270 -0.2489
    1DIPC   C1A 5765  20.168  20.655   5.058 -0.0113  0.0971  0.0348
    1DIPC   D2A 5766  20.241  20.735   4.640  0.0171 -0.0975 -0.2005
    1DIPC   D3A 5767  19.958  20.421   4.491  0.0245 -0.0082 -0.1264
    1DIPC   C4A 5768  20.256  20.189   4.165  0.1700 -0.1127 -0.1531
    1DIPC   C1B 5769  20.195  19.728   5.050 -0.0078  0.0529  0.2097
    1DIPC   D2B 5770  20.108  19.584   4.757  0.1911 -0.1428  0.0083
    1DIPC   D3B 5771  19.552  19.641   4.689 -0.1335 -0.2426  0.0261
    1DIPC   C4B 5772  19.219  19.322   4.692  0.2015 -0.0047  0.1400
    1DIPC   NC3 5773  12.442   5.568   5.933 -0.2391  0.2396  0.0010
    1DIPC   PO4 5774  12.325   6.027   5.836 -0.1211  0.0152  0.2147
    1DIPC   GL1 5775  12.388   5.801   5.518  0.1160 -0.1491  0.1245
    1DIPC   GL2 5776  12.218   5.799   5.203 -0.0256 -0.0587 -0.2440
    1DIPC   C1A 5777  12.804   5.768   5.228  0.2808 -0.0857 -0.1576
    1DIPC   D2A 5778  12.823   6.034   4.862 -0.0214  0.0419 -0.0341
    1DIPC   D3A 5779  12.450   6.225   5.041 -0.3667 -0.2342 -0.1986
    1DIPC   C4A 5780  12.114   6.564   4.946 -0.0018  0.0250 -0.0790
    1DIPC   C1B 5781  12.147   5.391   5.318  0.1269  0.1259 -0.2877
    1DIPC   D2B 5782  12.130   4.968   5.308  0.0497  0.1123 -0.0208
    1DIPC   D3B 5783  11.893   5.010   4.920 -0.1196 -0.2226  0.0027
    1DIPC   C4B 5784  11.828   5.456   4.877 -0.0635  0.1030 -0.0858
    1DIPC   NC3 5785  22.721  27.738   6.554 -0.1008 -0.1728  0.1398
    1DIPC   PO4 5786  22.443  27.872   6.256 -0.1645  0.1986  0.1734
    1DIPC   GL1 5787  22.440  27.762   5.894 -0.4098  0.2187  0.0102
    1DIPC   GL2 5788  22.240  27.512   5.773  0.0627  0.2418  0.2745
    1DIPC   C1A 5789  22.504  27.695   5.392  0.0997 -0.2494 -0.1337
    1DIPC   D2A 5790  22.720  28.089   5.067 -0.2954 -0.1791  0.2293
    1DIPC   D3A 5791  22.399  27.974   4.797 -0.1437  0.0757 -0.1695
    1DIPC   C4A 5792  22.049  27.783   5.098 -0.0970 -0.0934  0.1793
    1DIPC   C1B 5793  21.978  27.510   5.500 -0.0372 -0.0244 -0.1728
    1DIPC   D2B 5794  21.656  27.320   5.194  0.0023  0.0048 -0.1957
    1DIPC   D3B 5795  21.321  27.260   4.865  0.1268 -0.0816  0.1177
    1DIPC   C4B 5796  21.281  26.815   4.472 -0.0255  0.0992  0.2020
    1DIPC   NC3 5797   7.530  22.324   6.168 -0.0103 -0.1487 -0.0641
    1DIPC   PO4 5798   7.333  22.758   6.189  0.0166  0.0629  0.1966
    1DIPC   GL1 5799   7.473  22.774   5.725  0.0551 -0.3241 -0.2643
    1DIPC   GL2 5800   7.727  22.572   5.699  0.3675  0.0216  0.1088
    1DIPC   C1A 5801   7.635  22.865   5.301  0.4069  0.2098 -0.0429
    1DIPC   D2A 5802   8.021  22.938   5.141  0.1029 -0.0775 -0.0535
    1DIPC   D3A 5803   7.841  23.215   4.869  0.1029 -0.0743 -0.1874
    1DIPC   C4A 5804   7.729  23.214   4.422  0.0217  0.0436 -0.2368
    1DIPC   C1B 5805   8.015  22.797   5.757  0.0313 -0.0849  0.1531
    1DIPC   D2B 5806   8.221  23.266   5.806 -0.1391  0.1625  0.1983
    1DIPC   D3B 5807   7.952  23.548   5.834  0.3180 -0.2560 -0.0010
    1DIPC   C4B 5808   7.994  23.961   5.723  0.1920 -0.1229  0.2748
    1DIPC   NC3 5809  11.844  27.110   6.579 -0.1850  0.1240 -0.0157
    1DIPC   PO4 5810  11.554  27.230   6.314  0.0118  0.1038  0.0257
    1DIPC   GL1 5811  11.586  27.326   5.896 -0.1105 -0.0081 -0.0435
    1DIPC   GL2 5812  11.271  27.350   5.775 -0.0340  0.0441 -0.0094
    1DIPC   C1A 5813  11.687  27.142   5.495  0.2577  0.1312  0.0550
    1DIPC   D2A 5814  11.908  27.057   5.132 -0.3871  0.1574  0.0606
    1DIPC   D3A 5815  12.345  27.083   5.251  0.0006  0.0973  0.0190
    1DIPC   C4A 5816  12.736  27.127   5.137 -0.0865 -0.0401  0.0892
    1DIPC   C1B 5817  11.389  27.512   5.360 -0.1342  0.2118  0.0797
    1DIPC   D2B 5818  11.570  27.512   5.102  0.0249  0.2191  0.1352
    1DIPC   D3B 5819  11.544  27.240   4.759 -0.3533  0.1249 -0.1084
    1DIPC   C4B 5820  11.384  27.419   4.379  0.0210  0.0447 -0.2857
    1DIPC   NC3 5821  18.887  24.653   6.774 -0.3060 -0.0330 -0.2768
    1DIPC   PO4 5822  18.790  24.552   6.284  0.2493  0.1703 -0.3119
    1DIPC   GL1 5823  19.157  24.565   5.932 -0.0427 -0.2017  0.0104
    1DIPC   GL2 5824  19.232  24.784   5.754 -0.0607  0.1532  0.0809
    1DIPC   C1A 5825  19.323  24.276   5.630  0.1090 -0.2470 -0.2545
    1DIPC   D2A 5826  19.601  24.429   5.360 -0.2327  0.0049  0.0532
    1DIPC   D3A 5827  19.589  24.366   4.909 -0.1624  0.3152 -0.1321
    1DIPC   C4A 5828  19.799  24.644   4.725 -0.1357 -0.0689  0.1335
    1DIPC   C1B 5829  19.016  24.879   5.305 -0.1838 -0.0779  0.0296
    1DIPC   D2B 5830  19.021  24.837   4.728 -0.2567  0.1362 -0.0998
    1DIPC   D3B 5831  18.833  25.027   4.308  0.0059 -0.0349  0.1640
    1DIPC   C4B 5832  18.404  25.168   4.186 -0.0614 -0.2628 -0.0635
    1DIPC   NC3 5833  17.379  27.293   6.619 -0.3534  0.0609  0.0283
    1DIPC   PO4 5834  17.222  26.909   6.387  0.0611  0.2553 -0.1777
    1DIPC   GL1 5835  17.298  27.178   6.013 -0.1050 -0.0489  0.2346
    1DIPC   GL2 5836  17.575  27.008   5.922  0.1198  0.0083  0.0741
    1DIPC   C1A 5837  17.472  27.602   5.811  0.0284  0.1581 -0.2286
    1DIPC   D2A 5838  17.369  27.820   5.560 -0.0155  0.3827  0.1003
    1DIPC   D3A 5839  17.781  28.082   5.507  0.0346  0.1460  0.2938
    1DIPC   C4A 5840  17.588  28.455   5.314 -0.1226  0.3060 -0.2411
    1DIPC   C1B 5841  17.672  26.867   5.585  0.0512 -0.2405 -0.0425
    1DIPC   D2B 5842  17.874  26.913   5.329 -0.3872 -0.0503 -0.1650
    1DIPC   D3B 5843  17.658  26.862   4.996  0.0856  0.0104 -0.0347
    1DIPC   C4B 5844  17.631  27.144   4.637  0.0952  0.1756  0.1339
    1DIPC   NC3 5845  14.635  10.067   7.158 -0.1368  0.0743 -0.2498
    1DIPC   PO4 5846  14.738   9.680   6.990 -0.1406  0.0700  0.0422
    1DIPC   GL1 5847  14.601   9.981   6.596  0.0012 -0.0825 -0.1290
    1DIPC   GL2 5848  14.267   9.902   6.650 -0.3448  0.0548 -0.1910
    1DIPC   C1A 5849  14.347  10.154   6.236  0.2426 -0.1218  0.2053
    1DIPC   D2A 5850  14.371  10.254   5.834 -0.3032 -0.0210 -0.1623
    1DIPC   D3A 5851  13.979  10.441   5.731 -0.0512  0.0893  0.1339
    1DIPC   C4A 5852  13.695  10.174   5.383  0.2696 -0.2141 -0.0403
    1DIPC   C1B 5853  13.948   9.873   6.307 -0.0000  0.1989  0.0462
    1DIPC   D2B 5854  13.779   9.898   5.897  0.2611 -0.0975 -0.2353
    1DIPC   D3B 5855  13.825   9.542   5.536  0.0459 -0.0160  0.0725
    1DIPC   C4B 5856  14.148   9.458   5.283 -0.0365 -0.0303 -0.0258
    1DIPC   NC3 5857  11.305   7.881   6.877 -0.1629  0.1353 -0.1966
    1DIPC   PO4 5858  11.209   8.303   6.920  0.0232 -0.4093 -0.2306
    1DIPC   GL1 5859  10.959   8.471   6.561 -0.0118  0.2020  0.2061
    1DIPC   GL2 5860  11.023   8.792   6.418  0.1333 -0.1768 -0.2558
    1DIPC   C1A 5861  10.728   8.302   6.285 -0.2093  0.1201 -0.2377
    1DIPC   D2A 5862  10.635   7.846   6.164 -0.0521 -0.0405 -0.0063
    1DIPC   D3A 5863  10.354   7.980   5.827 -0.0308  0.1224  0.2634
    1DIPC   C4A 5864  10.047   8.362   5.771 -0.3019  0.2687 -0.0221
    1DIPC   C1B 5865  11.250   9.029   6.166 -0.0710 -0.1932  0.0543
    1DIPC   D2B 5866  11.486   9.387   5.989 -0.1449  0.0077  0.1193
    1DIPC   D3B 5867  11.455   9.868   5.907 -0.1747 -0.0274 -0.2301
    1DIPC   C4B 5868  11.223  10.027   6.280  0.0163  0.3207  0.2163
    1DIPC   NC3 5869  22.263  19.939   5.608 -0.1435 -0.0927 -0.0294
    1DIPC   PO4 5870  21.955  19.821   5.875  0.4004  0.0018 -0.1046
    1DIPC   GL1 5871  21.726  20.012   5.504 -0.0946 -0.0855  0.0241
    1DIPC   GL2 5872  21.476  19.858   5.381  0.2168 -0.1982  0.0381
    1DIPC   C1A 5873  21.567  20.380   5.270  0.0558 -0.1849  0.3013
    1DIPC   D2A 5874  21.707  20.711   5.052  0.1886  0.1125  0.1643
    1DIPC   D3A 5875  21.269  20.668   4.991 -0.2679  0.0872  0.0703
    1DIPC   C4A 5876  21.012  20.969   4.987 -0.0977  0.0632 -0.2779
    1DIPC   C1B 5877  21.418  19.708   4.881 -0.1276  0.0043 -0.0310
    1DIPC   D2B 5878  21.139  19.564   4.629 -0.0246  0.2489  0.1208
    1DIPC   D3B 5879  21.503  19.603   4.319 -0.0769  0.0702 -0.3243
    1DIPC   C4B 5880  21.829  19.860   4.556 -0.0936  0.0691 -0.1478
    1DIPC   NC3 5881  15.878  13.226   7.399 -0.2864 -0.2078 -0.1269
    1DIPC   PO4 5882  15.950  13.604   7.207 -0.2623 -0.2040 -0.1129
    1DIPC   GL1 5883  15.853  13.513   6.796  0.0269 -0.1014 -0.0596
    1DIPC   GL2 5884  15.835  13.225   6.852  0.0030 -0.1048  0.5425
    1DIPC   C1A 5885  15.934  13.578   6.334  0.1960 -0.2152 -0.3048
    1DIPC   D2A 5886  16.032  13.473   5.886 -0.3369  0.2939  0.1879
    1DIPC   D3A 5887  16.199  13.758   5.872  0.0092 -0.0138  0.2184
    1DIPC   C4A 5888  16.559  13.934   5.670 -0.0177  0.0632 -0.1412
    1DIPC   C1B 5889  16.198  13.182   6.566 -0.1193  0.0498  0.0782
    1DIPC   D2B 5890  16.348  13.181   6.138 -0.3174 -0.0806 -0.1548
    1DIPC   D3B 5891  16.484  12.902   5.846  0.0964  0.0143 -0.0286
    1DIPC   C4B 5892  16.741  13.071   5.519  0.2877  0.0392  0.2691
    1DIPC   NC3 5893  21.076  10.868   5.522  0.0167  0.0432  0.1152
    1DIPC   PO4 5894  20.841  11.116   5.808  0.2605  0.1885  0.2209
    1DIPC   GL1 5895  20.620  11.012   5.416  0.0335  0.1295  0.1569
    1DIPC   GL2 5896  20.427  11.250   5.271 -0.1273  0.1893  0.3515
    1DIPC   C1A 5897  20.630  10.832   5.011 -0.0638 -0.1902 -0.2073
    1DIPC   D2A 5898  20.872  11.000   4.722  0.2812  0.3713 -0.1212
    1DIPC   D3A 5899  21.369  11.038   4.792  0.2134  0.2276 -0.1273
    1DIPC   C4A 5900  21.586  10.702   4.779  0.0376  0.0863 -0.0365
    1DIPC   C1B 5901  20.442  11.268   4.807  0.0468 -0.1573 -0.1596
    1DIPC   D2B 5902  20.390  11.658   4.530 -0.1750  0.1826  0.0685
    1DIPC   D3B 5903  20.636  12.034   4.492 -0.1551 -0.0025 -0.0641
    1DIPC   C4B 5904  20.494  12.380   4.212  0.0452 -0.3252  0.1214
    1DIPC   NC3 5905  13.664  19.761   5.661 -0.0871  0.0870 -0.1261
    1DIPC   PO4 5906  13.305  19.937   5.405 -0.1081 -0.2265 -0.0871
    1DIPC   GL1 5907  13.127  20.137   5.018  0.1430  0.2148  0.0389
    1DIPC   GL2 5908  12.885  20.378   5.130 -0.0814 -0.1085 -0.0173
    1DIPC   C1A 5909  13.024  20.109   4.501 -0.0315  0.2580 -0.0367
    1DIPC   D2A 5910  13.042  20.070   4.026 -0.1137 -0.1383 -0.2516
    1DIPC   D3A 5911  12.872  20.027   3.663 -0.0435 -0.1068  0.1312
    1DIPC   C4A 5912  12.719  20.371   3.455  0.1937 -0.1260  0.0134
    1DIPC   C1B 5913  12.619  20.405   4.789  0.0170  0.1635  0.0362
    1DIPC   D2B 5914  12.282  20.753   4.659 -0.3103 -0.0133  0.0615
    1DIPC   D3B 5915  12.715  21.047   4.493 -0.0050  0.3478  0.0201
    1DIPC   C4B 5916  12.691  21.377   4.156 -0.0716  0.0412  0.2998
    1DIPC   NC3 5917   9.315  18.227   6.148  0.0544 -0.0479 -0.1787
    1DIPC   PO4 5918   9.599  18.479   6.003 -0.2453  0.0583 -0.2441
    1DIPC   GL1 5919   9.953  18.192   5.811  0.0710  0.0421  0.4078
    1DIPC   GL2 5920   9.914  18.372   5.606 -0.2265 -0.0571  0.0100
    1DIPC   C1A 5921  10.142  17.929   5.449  0.2859  0.2342  0.1602
    1DIPC   D2A 5922  10.342  17.495   5.433 -0.0423 -0.0380 -0.0642
    1DIPC   D3A 5923  10.033  17.248   5.530  0.2139 -0.1961 -0.1249
    1DIPC   C4A 5924   9.780  17.136   5.143  0.0650  0.1259 -0.3417
    1DIPC   C1B 5925  10.165  18.457   5.335  0.2112  0.0601  0.0359
    1DIPC   D2B 5926  10.331  18.377   4.909 -0.1206  0.1828 -0.0202
    1DIPC   D3B 5927  10.090  18.429   4.581  0.2382  0.2092  0.0523
    1DIPC   C4B 5928  10.176  18.826   4.487 -0.0301 -0.0262  0.0980
    1DIPC   NC3 5929  28.835   3.083   7.347 -0.1688  0.0789  0.0968
    1DIPC   PO4 5930  28.404   3.217   7.451  0.0267  0.3817  0.1337
    1DIPC   GL1 5931  28.372   3.060   7.031 -0.1797  0.2297  0.3070
    1DIPC   GL2 5932  28.616   3.287   6.913  0.3127 -0.1366 -0.2554
    1DIPC   C1A 5933  28.354   2.966   6.572 -0.1451 -0.2775  0.1992
    1DIPC   D2A 5934  28.555   2.808   6.196  0.1071 -0.0381 -0.2470
    1DIPC   D3A 5935  28.390   2.484   6.421  0.0505 -0.2113 -0.0529
    1DIPC   C4A 5936  28.296   2.127   6.232  0.2059  0.2450 -0.1690
    1DIPC   C1B 5937  28.730   3.284   6.470 -0.3685 -0.0565  0.0795
    1DIPC   D2B 5938  28.554   3.272   6.074  0.1149 -0.1599  0.0735
    1DIPC   D3B 5939  28.155   3.269   6.053  0.1870 -0.5109 -0.3358
    1DIPC   C4B 5940  27.823   3.350   5.740 -0.0793 -0.0371  0.2321
    1DIPC   NC3 5941  14.655   2.508   6.487  0.1412  0.2055 -0.0934
    1DIPC   PO4 5942  14.999   2.542   6.629 -0.2635 -0.0742 -0.0616
    1DIPC   GL1 5943  14.987   2.632   6.166 -0.3107 -0.0373  0.1899
    1DIPC   GL2 5944  14.727   2.522   6.038  0.4246  0.2347  0.1507
    1DIPC   C1A 5945  15.260   2.434   5.867 -0.1049 -0.0947  0.0102
    1DIPC   D2A 5946  15.386   2.153   5.436 -0.3650  0.0289  0.2622
    1DIPC   D3A 5947  15.713   1.840   5.467  0.4314 -0.0455  0.1185
    1DIPC   C4A 5948  16.186   2.019   5.474  0.0036  0.2469 -0.2173
    1DIPC   C1B 5949  14.841   2.565   5.696  0.1190 -0.0680 -0.0714
    1DIPC   D2B 5950  15.015   2.483   5.338  0.0326 -0.1206  0.2466
    1DIPC   D3B 5951  14.707   2.395   5.102  0.0356  0.2958 -0.2496
    1DIPC   C4B 5952  14.756   2.351   4.679  0.1186  0.1473  0.0385
    1DIPC   NC3 5953  29.603   8.828   7.499 -0.2449 -0.0594 -0.1761
    1DIPC   PO4 5954  30.047   8.814   7.273  0.2424  0.0657 -0.2831
    1DIPC   GL1 5955  30.045   9.158   7.009 -0.4255  0.0861  0.1483
    1DIPC   GL2 5956  29.755   9.185   6.742  0.2808  0.0390  0.0240
    1DIPC   C1A 5957  30.160   9.459   6.654  0.1522  0.0028 -0.2834
    1DIPC   D2A 5958   0.179   9.320   6.363  0.4111 -0.0986 -0.2714
    1DIPC   D3A 5959   0.214   9.053   6.010  0.0345  0.0388 -0.0313
    1DIPC   C4A 5960   0.586   9.189   5.906  0.5040  0.0810 -0.0444
    1DIPC   C1B 5961  29.539   8.864   6.354 -0.0441 -0.0330  0.5902
    1DIPC   D2B 5962  29.368   8.585   6.207  0.1101  0.0523 -0.0477
    1DIPC   D3B 5963  29.754   8.735   5.852 -0.0660 -0.0352 -0.1685
    1DIPC   C4B 5964  30.120   8.730   6.064 -0.1329 -0.1044  0.0805
    1DIPC   NC3 5965  20.152  20.889   5.826 -0.1923  0.0260 -0.0025
    1DIPC   PO4 5966  20.546  21.008   5.686 -0.0275 -0.0457  0.1385
    1DIPC   GL1 5967  20.564  21.118   5.304  0.1142  0.1918 -0.1192
    1DIPC   GL2 5968  20.938  21.250   5.401  0.2730 -0.0695 -0.2281
    1DIPC   C1A 5969  20.627  21.329   4.892  0.0549  0.0809  0.0141
    1DIPC   D2A 5970  20.622  21.581   4.609 -0.1948 -0.0055 -0.2149
    1DIPC   D3A 5971  20.502  21.625   4.175  0.1313  0.3282  0.1900
    1DIPC   C4A 5972  20.619  21.961   3.885 -0.1509 -0.0651  0.0007
    1DIPC   C1B 5973  21.059  21.515   5.207 -0.0145 -0.1196 -0.1248
    1DIPC   D2B 5974  20.914  21.924   5.109 -0.0118 -0.3531 -0.2582
    1DIPC   D3B 5975  20.794  22.143   4.762  0.1011  0.0293 -0.2454
    1DIPC   C4B 5976  20.525  22.066   4.434 -0.1522 -0.2628 -0.2841
    1DIPC   NC3 5977  26.326  12.360   6.492 -0.1495 -0.0126 -0.0398
    1DIPC   PO4 5978  26.751  12.162   6.325  0.1649 -0.1898  0.0193
    1DIPC   GL1 5979  26.622  11.984   5.891  0.1687 -0.0772 -0.0179
    1DIPC   GL2 5980  26.504  11.653   5.886  0.0860 -0.1193 -0.2689
    1DIPC   C1A 5981  26.541  12.153   5.555 -0.2366  0.0483 -0.0852
    1DIPC   D2A 5982  26.426  12.524   5.422 -0.0370 -0.0001  0.1268
    1DIPC   D3A 5983  26.157  12.265   5.183  0.0824  0.1525  0.0740
    1DIPC   C4A 5984  25.843  12.512   4.888  0.0163 -0.1444  0.5250
    1DIPC   C1B 5985  26.416  11.685   5.462  0.0728 -0.2677  0.0864
    1DIPC   D2B 5986  26.428  11.905   5.017 -0.1340  0.0310  0.1091
    1DIPC   D3B 5987  26.716  12.001   4.682  0.2213 -0.0791  0.1654
    1DIPC   C4B 5988  26.975  12.371   4.695  0.1715 -0.1102 -0.1583
    1DIPC   NC3 5989  23.254  19.541   5.901  0.0627  0.0831  0.0084
    1DIPC   PO4 5990  23.313  20.004   5.648  0.1676  0.0747  0.1118
    1DIPC   GL1 5991  23.640  20.001   5.375 -0.0799  0.2263 -0.0849
    1DIPC   GL2 5992  23.794  20.164   5.212 -0.1083  0.0917  0.0449
    1DIPC   C1A 5993  24.063  19.807   5.469 -0.0198 -0.0452 -0.2475
    1DIPC   D2A 5994  24.130  19.288   5.492 -0.3514  0.2916 -0.4136
    1DIPC   D3A 5995  24.432  19.303   5.299 -0.0487 -0.0121  0.0707
    1DIPC   C4A 5996  24.663  18.861   5.186  0.1998 -0.0902 -0.1419
    1DIPC   C1B 5997  23.577  20.092   4.866  0.1261  0.0147  0.2805
    1DIPC   D2B 5998  23.750  19.792   4.665 -0.0354 -0.0871  0.0639
    1DIPC   D3B 5999  23.294  19.878   4.377  0.1512 -0.2407 -0.1528
    1DIPC   C4B 6000  22.866  19.872   4.485 -0.2898 -0.3501  0.1338
    1DIPC   NC3 6001  22.950  14.806   5.677 -0.1051  0.4165 -0.0091
    1DIPC   PO4 6002  23.068  14.465   5.518  0.2178 -0.1506  0.2411
    1DIPC   GL1 6003  23.265  14.149   5.222  0.0011  0.2210 -0.0256
    1DIPC   GL2 6004  23.538  14.043   5.162 -0.1440  0.0747 -0.0878
    1DIPC   C1A 6005  23.148  13.955   4.804 -0.2391  0.1480  0.1501
    1DIPC   D2A 6006  23.265  13.721   4.462  0.0956 -0.2516 -0.0651
    1DIPC   D3A 6007  23.538  14.040   4.195  0.2166 -0.2298  0.1548
    1DIPC   C4A 6008  23.562  14.473   4.063  0.2811 -0.2604  0.1334
    1DIPC   C1B 6009  23.642  13.826   4.747  0.0559  0.1348  0.2050
    1DIPC   D2B 6010  23.921  13.817   4.405 -0.2822 -0.0160  0.1250
    1DIPC   D3B 6011  23.745  13.576   4.138 -0.0875 -0.0635 -0.0289
    1DIPC   C4B 6012  23.885  13.241   4.049  0.1093  0.0362  0.2269
    1DIPC   NC3 6013  11.306  16.917   6.626  0.1574  0.0781  0.3140
    1DIPC   PO4 6014  11.627  16.556   6.509  0.1376  0.1336 -0.0307
    1DIPC   GL1 6015  11.571  16.287   6.175  0.1519 -0.0308 -0.2361
    1DIPC   GL2 6016  11.734  16.054   6.103  0.2893 -0.0100  0.1421
    1DIPC   C1A 6017  11.261  16.127   5.908 -0.1423 -0.0262  0.0332
    1DIPC   D2A 6018  11.168  16.381   5.461  0.2219 -0.1234 -0.3078
    1DIPC   D3A 6019  10.916  16.110   5.210 -0.2046  0.2436  0.0491
    1DIPC   C4A 6020  11.122  15.618   5.063  0.1711 -0.0256 -0.0086
    1DIPC   C1B 6021  11.737  16.140   5.730 -0.1833 -0.0250 -0.0968
    1DIPC   D2B 6022  11.961  16.148   5.344 -0.0990 -0.0330  0.4304
    1DIPC   D3B 6023  12.214  16.215   5.100  0.0976  0.0923  0.0788
    1DIPC   C4B 6024  12.592  16.298   5.119  0.1959 -0.2393 -0.0385
    1DIPC   NC3 6025  20.443  25.053   6.016  0.3525  0.0739  0.0026
    1DIPC   PO4 6026  20.808  25.372   5.967  0.0039 -0.1618 -0.0402
    1DIPC   GL1 6027  20.519  25.497   5.638 -0.0232 -0.0142 -0.0015
    1DIPC   GL2 6028  20.794  25.686   5.453 -0.0016  0.1762 -0.0001
    1DIPC   C1A 6029  20.502  25.304   5.233 -0.1954  0.0132 -0.0556
    1DIPC   D2A 6030  20.678  25.193   4.847  0.1780  0.2552  0.3206
    1DIPC   D3A 6031  20.272  24.990   4.773  0.1594 -0.1065 -0.0685
    1DIPC   C4A 6032  20.044  24.983   4.402 -0.1631 -0.1079  0.0453
    1DIPC   C1B 6033  21.179  25.734   5.237 -0.1534  0.0106 -0.0323
    1DIPC   D2B 6034  21.464  25.947   4.942  0.0948 -0.0267 -0.2813
    1DIPC   D3B 6035  21.654  25.630   5.196 -0.2490 -0.2510 -0.1291
    1DIPC   C4B 6036  22.131  25.675   5.275  0.3006  0.1020  0.3522
    1DIPC   NC3 6037  10.939   5.431   6.851 -0.2501 -0.2588  0.2134
    1DIPC   PO4 6038  10.520   5.447   6.551 -0.4063  0.0059  0.0239
    1DIPC   GL1 6039  10.549   5.540   6.113 -0.1642  0.0224  0.2707
    1DIPC   GL2 6040  10.851   5.580   5.928 -0.3886 -0.1551 -0.2884
    1DIPC   C1A 6041  10.435   5.525   5.641  0.0858 -0.1036  0.2756
    1DIPC   D2A 6042  10.467   5.287   5.304  0.3282  0.0395  0.3834
    1DIPC   D3A 6043  10.718   5.006   5.254  0.1698 -0.0060  0.2400
    1DIPC   C4A 6044  10.727   4.582   5.309 -0.3621  0.0075 -0.0877
    1DIPC   C1B 6045  10.828   5.170   5.709 -0.3342 -0.1438  0.0963
    1DIPC   D2B 6046  11.146   4.797   5.595  0.2282 -0.0974  0.2366
    1DIPC   D3B 6047  11.209   4.669   5.191  0.3623  0.1016 -0.2834
    1DIPC   C4B 6048  11.478   4.648   4.867 -0.0420 -0.0803  0.2115
    1DIPC   NC3 6049  16.775  19.657   6.004  0.0160  0.2707  0.3246
    1DIPC   PO4 6050  16.418  19.592   5.856  0.1275 -0.2162  0.0491
    1DIPC   GL1 6051  16.181  19.774   5.580  0.2244  0.3935 -0.3196
    1DIPC   GL2 6052  15.990  19.484   5.512 -0.1024  0.1887 -0.2004
    1DIPC   C1A 6053  16.132  19.799   5.120 -0.3917  0.1800  0.1931
    1DIPC   D2A 6054  16.020  19.856   4.642 -0.1737 -0.2617 -0.1741
    1DIPC   D3A 6055  16.480  19.725   4.732  0.0462 -0.3236  0.1567
    1DIPC   C4A 6056  16.615  19.664   5.151  0.1915  0.0607  0.1321
    1DIPC   C1B 6057  16.285  19.300   5.304  0.0233 -0.0394  0.0477
    1DIPC   D2B 6058  16.183  19.371   4.829 -0.0829 -0.0347 -0.1901
    1DIPC   D3B 6059  16.575  19.221   4.614  0.0125 -0.0485 -0.3888
    1DIPC   C4B 6060  16.711  18.683   4.665  0.3017 -0.0788 -0.2430
    1DIPC   NC3 6061   3.317  24.455   7.071 -0.0929  0.2476 -0.0351
    1DIPC   PO4 6062   3.198  24.950   6.944 -0.2157  0.2082 -0.0912
    1DIPC   GL1 6063   3.036  25.140   6.435  0.3116 -0.0483  0.0679
    1DIPC   GL2 6064   3.186  24.955   6.123 -0.2015  0.2597 -0.2490
    1DIPC   C1A 6065   2.614  25.147   6.144  0.0147 -0.1458 -0.0233
    1DIPC   D2A 6066   2.477  25.025   5.700 -0.0009  0.1804 -0.2053
    1DIPC   D3A 6067   2.623  24.913   5.245 -0.3489  0.1268  0.1724
    1DIPC   C4A 6068   2.690  25.226   4.951 -0.3507 -0.0382  0.0208
    1DIPC   C1B 6069   2.998  25.049   5.746  0.0292 -0.1713 -0.2287
    1DIPC   D2B 6070   3.137  25.212   5.226  0.1372 -0.1317 -0.0153
    1DIPC   D3B 6071   3.590  24.992   5.058 -0.2045 -0.1072 -0.0669
    1DIPC   C4B 6072   3.410  24.575   4.925 -0.2393  0.0614 -0.1155
    1DIPC   NC3 6073  20.566  12.391   6.099 -0.1654 -0.1183 -0.0711
    1DIPC   PO4 6074  20.512  11.874   6.070 -0.1243  0.3454  0.1750
    1DIPC   GL1 6075  20.444  11.996   5.733 -0.1062  0.2197  0.0664
    1DIPC   GL2 6076  20.562  12.406   5.618 -0.0365  0.0598 -0.1454
    1DIPC   C1A 6077  20.408  12.095   5.241 -0.0852 -0.0852 -0.0775
    1DIPC   D2A 6078  20.242  12.047   4.812  0.0010  0.0518 -0.0252
    1DIPC   D3A 6079  19.936  11.867   4.512  0.0386 -0.1117 -0.1415
    1DIPC   C4A 6080  19.570  11.909   4.873 -0.1624  0.0667 -0.0392
    1DIPC   C1B 6081  20.895  12.310   5.364 -0.1989  0.0468 -0.0289
    1DIPC   D2B 6082  20.759  12.454   5.000  0.0055 -0.0867 -0.0866
    1DIPC   D3B 6083  21.013  12.368   4.649  0.3414  0.0518  0.0326
    1DIPC   C4B 6084  20.851  12.659   4.444 -0.2809  0.2217 -0.2720
    1DIPC   NC3 6085   7.167  14.339   6.377 -0.0610  0.3641 -0.1239
    1DIPC   PO4 6086   7.579  14.150   6.400 -0.1779 -0.2058  0.0046
    1DIPC   GL1 6087   7.554  14.091   6.047  0.1017 -0.0070 -0.2334
    1DIPC   GL2 6088   7.207  14.065   5.920 -0.0786  0.1023  0.1201
    1DIPC   C1A 6089   7.560  14.025   5.513  0.1461  0.0398 -0.0118
    1DIPC   D2A 6090   7.797  14.270   5.275 -0.2516  0.0920 -0.2297
    1DIPC   D3A 6091   7.767  13.958   4.960  0.0524  0.2724 -0.0424
    1DIPC   C4A 6092   7.421  13.648   4.930 -0.1797 -0.5578  0.0252
    1DIPC   C1B 6093   6.784  13.845   5.684  0.1430 -0.0209 -0.1604
    1DIPC   D2B 6094   6.626  13.747   5.314 -0.0291 -0.2899  0.2498
    1DIPC   D3B 6095   6.871  13.542   4.972  0.0882  0.3363 -0.0693
    1DIPC   C4B 6096   6.747  13.654   4.581  0.0533 -0.1046 -0.0358
    1DIPC   NC3 6097  18.377  22.609   6.206  0.0064  0.0314 -0.1962
    1DIPC   PO4 6098  18.841  22.787   6.295 -0.0514  0.0714 -0.2427
    1DIPC   GL1 6099  18.798  22.805   5.830 -0.2964  0.2186 -0.0950
    1DIPC   GL2 6100  18.523  22.892   5.570 -0.2252  0.1580  0.0378
    1DIPC   C1A 6101  18.703  22.403   5.625 -0.0736  0.0022  0.0614
    1DIPC   D2A 6102  18.831  22.171   5.252 -0.1065 -0.0176  0.1543
    1DIPC   D3A 6103  19.264  22.364   5.184  0.2299 -0.1102 -0.0797
    1DIPC   C4A 6104  19.561  22.376   5.413 -0.2680 -0.2654 -0.3677
    1DIPC   C1B 6105  18.726  23.362   5.498 -0.1208  0.2950 -0.3715
    1DIPC   D2B 6106  18.737  23.522   5.083  0.0165  0.1524 -0.1013
    1DIPC   D3B 6107  18.513  23.603   4.761  0.3503 -0.2256  0.1173
    1DIPC   C4B 6108  18.481  24.052   4.653 -0.0002 -0.0202  0.1420
    1DIPC   NC3 6109  19.400  14.070   6.817  0.4342  0.0203  0.2571
    1DIPC   PO4 6110  19.782  13.792   6.627  0.2038  0.2854 -0.1891
    1DIPC   GL1 6111  19.820  13.761   6.190  0.1055 -0.0106  0.0785
    1DIPC   GL2 6112  19.847  13.600   5.879 -0.0087  0.1630 -0.0812
    1DIPC   C1A 6113  19.470  13.880   5.820  0.0840 -0.3398  0.4239
    1DIPC   D2A 6114  19.331  14.212   5.491 -0.1571  0.0296  0.2201
    1DIPC   D3A 6115  19.777  14.137   5.491 -0.1491 -0.1739 -0.0939
    1DIPC   C4A 6116  19.803  14.145   5.066  0.1848 -0.1972  0.2713
    1DIPC   C1B 6117  19.782  13.553   5.469  0.1174  0.0609  0.3064
    1DIPC   D2B 6118  19.517  13.783   5.242  0.0152 -0.3258 -0.0909
    1DIPC   D3B 6119  19.560  13.766   4.771  0.1860 -0.0341 -0.0317
    1DIPC   C4B 6120  19.539  13.518   4.579 -0.0545 -0.0309  0.2615
    1DIPC   NC3 6121  18.416   6.227   6.123  0.4952 -0.1649 -0.0304
    1DIPC   PO4 6122  17.989   6.096   6.075  0.0467  0.0772 -0.1837
    1DIPC   GL1 6123  17.753   6.008   5.728  0.3851  0.0506  0.0623
    1DIPC   GL2 6124  17.919   6.275   5.436 -0.0671  0.2631  0.1738
    1DIPC   C1A 6125  17.721   5.806   5.278  0.0479 -0.3274 -0.1709
    1DIPC   D2A 6126  17.932   5.724   4.803  0.0660  0.2733  0.0168
    1DIPC   D3A 6127  18.315   5.521   4.705 -0.0873  0.0517  0.0555
    1DIPC   C4A 6128  18.427   5.401   4.229  0.4349  0.0271  0.0658
    1DIPC   C1B 6129  18.334   6.362   5.179 -0.3663  0.1303 -0.0990
    1DIPC   D2B 6130  18.498   6.575   4.846 -0.0494 -0.2028 -0.1913
    1DIPC   D3B 6131  18.746   6.471   4.582 -0.3501  0.3009  0.2696
    1DIPC   C4B 6132  18.700   6.193   4.388 -0.2819  0.0817 -0.2814
    1DIPC   NC3 6133  24.316   7.692   6.399 -0.0979  0.3843 -0.0662
    1DIPC   PO4 6134  24.173   7.441   6.012  0.1239 -0.0692 -0.0068
    1DIPC   GL1 6135  24.506   7.376   5.755  0.2890  0.1147  0.0174
    1DIPC   GL2 6136  24.309   7.561   5.522  0.2041  0.0778 -0.0718
    1DIPC   C1A 6137  24.840   7.259   5.474 -0.1323  0.2014 -0.0821
    1DIPC   D2A 6138  25.056   6.992   5.478  0.0514  0.0368  0.0932
    1DIPC   D3A 6139  25.139   7.229   5.095  0.5399 -0.1137 -0.2159
    1DIPC   C4A 6140  24.902   7.581   5.137  0.4064  0.0536  0.0250
    1DIPC   C1B 6141  24.375   7.435   5.117  0.2342  0.0568 -0.2540
    1DIPC   D2B 6142  24.285   7.097   4.713 -0.0205 -0.2501  0.0949
    1DIPC   D3B 6143  24.057   6.857   4.398 -0.1158 -0.1795  0.0841
    1DIPC   C4B 6144  24.183   6.436   4.241 -0.0827 -0.0403 -0.0049
    1DIPC   NC3 6145  17.152   0.448   7.074 -0.3740  0.1193  0.1966
    1DIPC   PO4 6146  17.541   0.246   6.754 -0.0133 -0.1512  0.0485
    1DIPC   GL1 6147  17.350  30.324   6.401 -0.1345  0.0515 -0.3121
    1DIPC   GL2 6148  17.586  30.136   6.235 -0.0066  0.0291  0.0097
    1DIPC   C1A 6149  17.063  30.072   6.152  0.1579 -0.0022 -0.4916
    1DIPC   D2A 6150  16.836  29.848   6.124  0.0000 -0.0504  0.0741
    1DIPC   D3A 6151  16.991  29.892   5.701 -0.1309  0.0039 -0.2855
    1DIPC   C4A 6152  17.245  30.270   5.719 -0.6201  0.2345  0.0576
    1DIPC   C1B 6153  17.748  30.047   5.859  0.1353  0.1999  0.0223
    1DIPC   D2B 6154  17.547  29.925   5.565  0.0538  0.1129  0.0922
    1DIPC   D3B 6155  17.473  29.600   5.886  0.2028  0.0077  0.1368
    1DIPC   C4B 6156  17.069  29.419   5.945  0.0513 -0.3739  0.0965
    1DIPC   NC3 6157  10.781   1.817   6.469  0.1084 -0.0574 -0.0374
    1DIPC   PO4 6158  10.712   2.234   6.413  0.1772 -0.1522 -0.0564
    1DIPC   GL1 6159  10.587   2.076   6.008 -0.1574  0.0539  0.0899
    1DIPC   GL2 6160  10.444   2.349   5.916  0.0412  0.1677 -0.0977
    1DIPC   C1A 6161  10.460   1.713   5.769 -0.4759  0.3382  0.0225
    1DIPC   D2A 6162  10.671   1.307   5.793  0.3769 -0.3225  0.2467
    1DIPC   D3A 6163  10.491   1.221   5.394 -0.2236  0.2076  0.1117
    1DIPC   C4A 6164  10.623   1.359   5.006 -0.0330 -0.5996 -0.1715
    1DIPC   C1B 6165  10.532   2.627   5.630 -0.0047 -0.2115 -0.0441
    1DIPC   D2B 6166  10.783   2.802   5.537  0.3385 -0.0519 -0.0808
    1DIPC   D3B 6167  10.422   2.877   5.277  0.0179 -0.3995 -0.0170
    1DIPC   C4B 6168  10.234   3.271   5.254 -0.2514  0.0298 -0.0581
    1DIPC   NC3 6169   2.371  26.086   7.364 -0.0144  0.3114  0.0170
    1DIPC   PO4 6170   2.075  26.034   6.989  0.3302  0.0882  0.0565
    1DIPC   GL1 6171   1.853  26.066   6.541  0.4356 -0.0180 -0.0617
    1DIPC   GL2 6172   1.966  26.343   6.358  0.1163  0.1375 -0.2546
    1DIPC   C1A 6173   1.893  25.818   6.173 -0.1712 -0.0415  0.4999
    1DIPC   D2A 6174   1.656  25.720   5.803 -0.1251 -0.1848  0.2433
    1DIPC   D3A 6175   1.546  25.472   5.452  0.0365 -0.1278  0.0847
    1DIPC   C4A 6176   1.269  25.617   5.246  0.1803  0.0415  0.0435
    1DIPC   C1B 6177   1.646  26.580   6.370  0.1117 -0.1285 -0.0348
    1DIPC   D2B 6178   1.176  26.623   6.373  0.0635  0.1049  0.4216
    1DIPC   D3B 6179   1.152  26.580   5.903  0.1034 -0.3023 -0.0590
    1DIPC   C4B 6180   0.898  26.882   5.592 -0.1282 -0.1716  0.1105
    1DIPC   NC3 6181  13.843  15.039   7.245  0.2144  0.2088  0.2214
    1DIPC   PO4 6182  13.886  14.635   7.174 -0.0564 -0.0682  0.0560
    1DIPC   GL1 6183  14.217  14.564   6.845 -0.2077 -0.1548 -0.0627
    1DIPC   GL2 6184  14.384  14.268   6.847 -0.0637 -0.2574  0.1221
    1DIPC   C1A 6185  14.285  14.508   6.406  0.2739  0.0177  0.0324
    1DIPC   D2A 6186  14.135  14.744   6.032  0.0082 -0.1320  0.0882
    1DIPC   D3A 6187  14.286  14.441   5.754  0.2677 -0.0788 -0.3539
    1DIPC   C4A 6188  14.453  14.407   5.352 -0.0312 -0.3531 -0.1306
    1DIPC   C1B 6189  14.130  14.059   6.637 -0.2313 -0.0576 -0.0516
    1DIPC   D2B 6190  14.028  13.752   6.420  0.3348  0.1049 -0.0174
    1DIPC   D3B 6191  13.770  13.824   6.108  0.1659  0.0565  0.1943
    1DIPC   C4B 6192  13.893  14.142   5.710 -0.0259 -0.0885  0.0355
    1DIPC   NC3 6193   5.212   4.262   6.898 -0.1509  0.1369 -0.1686
    1DIPC   PO4 6194   5.597   4.305   7.238  0.0893  0.1964  0.1396
    1DIPC   GL1 6195   5.702   4.448   6.728 -0.0482  0.0242  0.0086
    1DIPC   GL2 6196   5.466   4.631   6.647  0.0411 -0.0426  0.1365
    1DIPC   C1A 6197   5.803   4.371   6.294 -0.3970 -0.4756 -0.1673
    1DIPC   D2A 6198   5.907   4.106   5.878 -0.0135  0.2200  0.3306
    1DIPC   D3A 6199   6.076   4.408   5.652 -0.0225  0.1083  0.1513
    1DIPC   C4A 6200   5.821   4.753   5.518 -0.0022  0.0936  0.0101
    1DIPC   C1B 6201   5.264   4.359   6.292 -0.0693 -0.0616  0.0875
    1DIPC   D2B 6202   5.506   4.356   5.901 -0.1260  0.3500 -0.4651
    1DIPC   D3B 6203   5.346   4.329   5.525 -0.1054 -0.1526 -0.0045
    1DIPC   C4B 6204   5.669   4.323   5.343  0.1519  0.2087 -0.0533
    1DIPC   NC3 6205  15.600   5.703   5.677 -0.1501  0.1902 -0.0894
    1DIPC   PO4 6206  15.629   5.171   5.746  0.1598  0.2172 -0.1603
    1DIPC   GL1 6207  15.387   4.950   5.459 -0.1855 -0.2024 -0.1209
    1DIPC   GL2 6208  15.062   4.858   5.675 -0.1026  0.0298 -0.0556
    1DIPC   C1A 6209  15.491   4.763   5.026 -0.2035 -0.2252 -0.0253
    1DIPC   D2A 6210  15.810   4.589   4.861 -0.2662  0.0366 -0.1054
    1DIPC   D3A 6211  15.648   4.707   4.407  0.2268  0.0513 -0.0993
    1DIPC   C4A 6212  15.752   5.194   4.128 -0.0022  0.1143 -0.0144
    1DIPC   C1B 6213  14.922   5.020   5.278  0.1526  0.2627 -0.0164
    1DIPC   D2B 6214  15.081   4.940   4.832  0.0791 -0.1899 -0.0867
    1DIPC   D3B 6215  15.129   5.319   4.591 -0.0902  0.2844 -0.0458
    1DIPC   C4B 6216  14.902   5.624   4.557 -0.1868  0.3366 -0.1035
    1DIPC   NC3 6217  18.768  14.887   6.380 -0.1037  0.0117 -0.1595
    1DIPC   PO4 6218  18.263  15.074   6.481  0.1338 -0.2362 -0.1097
    1DIPC   GL1 6219  18.309  14.692   6.189 -0.0599  0.0102  0.1849
    1DIPC   GL2 6220  18.479  14.486   6.281  0.1887 -0.1638 -0.0281
    1DIPC   C1A 6221  18.241  14.556   5.701 -0.0079 -0.0249  0.3629
    1DIPC   D2A 6222  18.130  14.556   5.189 -0.0143  0.0515  0.0449
    1DIPC   D3A 6223  18.394  14.213   4.911 -0.0253  0.1506  0.1511
    1DIPC   C4A 6224  18.110  13.883   4.888  0.2614  0.2425  0.0245
    1DIPC   C1B 6225  18.531  14.224   5.999 -0.0314  0.1374  0.0681
    1DIPC   D2B 6226  18.057  14.065   5.726 -0.4133 -0.1340  0.2242
    1DIPC   D3B 6227  18.218  14.030   5.392 -0.2331 -0.2327  0.0573
    1DIPC   C4B 6228  18.607  13.808   5.161  0.0354 -0.2215  0.0482
    1DIPC   NC3 6229  16.944  13.855   7.101 -0.0920  0.2914 -0.1475
    1DIPC   PO4 6230  17.122  14.220   6.811 -0.1936 -0.1145  0.0887
    1DIPC   GL1 6231  17.195  14.130   6.448 -0.1917  0.4571 -0.0888
    1DIPC   GL2 6232  17.526  14.025   6.348  0.3627  0.1815 -0.0506
    1DIPC   C1A 6233  17.102  13.903   6.092 -0.0987 -0.0574 -0.0520
    1DIPC   D2A 6234  17.157  13.624   5.634 -0.2567 -0.2832  0.1776
    1DIPC   D3A 6235  17.132  13.331   5.356  0.1541  0.1039 -0.0143
    1DIPC   C4A 6236  17.288  13.632   5.090  0.0429  0.0768 -0.0178
    1DIPC   C1B 6237  17.311  14.350   6.047 -0.2512  0.0840  0.3090
    1DIPC   D2B 6238  17.485  14.543   5.728  0.1751  0.0204 -0.1583
    1DIPC   D3B 6239  17.773  14.345   5.416 -0.2032 -0.0057  0.2845
    1DIPC   C4B 6240  17.810  13.860   5.320 -0.0761  0.0586 -0.0881
    1DIPC   NC3 6241  30.004  25.901   6.924  0.5434  0.3769  0.2117
    1DIPC   PO4 6242   0.019  26.167   6.793  0.1802  0.1906 -0.2068
    1DIPC   GL1 6243  30.307  26.537   6.443  0.0344  0.3487 -0.2554
    1DIPC   GL2 6244   0.335  26.616   6.523  0.0017 -0.0985 -0.1040
    1DIPC   C1A 6245   0.026  26.712   6.070 -0.0185 -0.0953  0.0716
    1DIPC   D2A 6246  30.288  26.806   5.711  0.0157  0.1976 -0.0533
    1DIPC   D3A 6247  30.151  27.173   5.689  0.0388 -0.0121  0.0437
    1DIPC   C4A 6248  29.722  27.237   5.858 -0.1446  0.0073 -0.1143
    1DIPC   C1B 6249   0.593  26.951   6.345  0.0510  0.0087 -0.1184
    1DIPC   D2B 6250   0.973  26.974   6.133 -0.1854 -0.1514  0.0662
    1DIPC   D3B 6251   1.129  27.163   6.465  0.1429 -0.1225 -0.0554
    1DIPC   C4B 6252   1.415  27.467   6.327  0.0270  0.0265  0.0466
    1DIPC   NC3 6253   1.096   0.659   7.215  0.1360 -0.0304 -0.3136
    1DIPC   PO4 6254   1.418   0.497   7.456 -0.1903 -0.2782 -0.1230
    1DIPC   GL1 6255   1.556   0.433   7.048 -0.0806  0.2694  0.3158
    1DIPC   GL2 6256   1.256   0.335   6.887  0.2296  0.0614 -0.1031
    1DIPC   C1A 6257   1.758   0.470   6.644 -0.0129  0.3196  0.0297
    1DIPC   D2A 6258   1.910   0.649   6.320 -0.0833  0.2232 -0.2279
    1DIPC   D3A 6259   2.010   0.336   5.986  0.0883 -0.3637 -0.1694
    1DIPC   C4A 6260   1.784  30.250   6.030 -0.0713  0.1148 -0.0981
    1DIPC   C1B 6261   1.291   0.564   6.532 -0.4065 -0.1968  0.0124
    1DIPC   D2B 6262   1.446   0.828   6.154 -0.0511 -0.3763  0.3471
    1DIPC   D3B 6263   1.262   0.847   5.729  0.0029  0.1854 -0.0246
    1DIPC   C4B 6264   1.367   1.276   5.493 -0.1436  0.1430  0.0229
    1DIPC   NC3 6265  22.153  12.766   6.066  0.0444  0.5213  0.2442
    1DIPC   PO4 6266  22.642  12.571   5.906 -0.1223 -0.0828  0.0520
    1DIPC   GL1 6267  22.620  12.381   5.401  0.0021 -0.1992  0.1920
    1DIPC   GL2 6268  22.715  12.133   5.288 -0.1172 -0.2536  0.1536
    1DIPC   C1A 6269  22.718  12.650   5.061  0.1887 -0.1543 -0.2276
    1DIPC   D2A 6270  22.723  12.737   4.632 -0.0256  0.0486 -0.0784
    1DIPC   D3A 6271  22.328  12.542   4.718 -0.0904  0.0017  0.2317
    1DIPC   C4A 6272  22.236  12.229   5.113 -0.0580 -0.2157  0.0858
    1DIPC   C1B 6273  22.813  12.163   4.805  0.3914  0.1127 -0.1396
    1DIPC   D2B 6274  22.631  12.195   4.425  0.1740  0.1603  0.3512
    1DIPC   D3B 6275  22.277  12.361   4.217 -0.3994  0.1660  0.2485
    1DIPC   C4B 6276  22.474  12.803   4.058  0.0302  0.2607  0.3848
    1DIPC   NC3 6277   8.952   7.963   6.756  0.3392 -0.0696 -0.2229
    1DIPC   PO4 6278   9.005   8.301   6.521 -0.3642 -0.0725 -0.2347
    1DIPC   GL1 6279   9.184   8.554   6.120 -0.0299 -0.3896 -0.1516
    1DIPC   GL2 6280   9.028   8.744   5.914 -0.3669 -0.3095  0.0959
    1DIPC   C1A 6281   9.504   8.669   5.746  0.1979 -0.1762  0.3156
    1DIPC   D2A 6282   9.922   8.812   5.679 -0.0759  0.1249  0.1520
    1DIPC   D3A 6283  10.129   8.775   5.287  0.1700 -0.0385 -0.1244
    1DIPC   C4A 6284  10.416   9.103   5.191 -0.0593  0.1147 -0.3448
    1DIPC   C1B 6285   8.977   8.561   5.563 -0.1260 -0.1478 -0.1392
    1DIPC   D2B 6286   9.167   8.624   5.079  0.1824  0.1437  0.0160
    1DIPC   D3B 6287   9.443   8.323   4.807 -0.2053 -0.2941 -0.1404
    1DIPC   C4B 6288   9.707   7.972   5.059 -0.1300 -0.0937 -0.1372
    1DIPC   NC3 6289  25.296   6.248   7.037 -0.1032  0.1731 -0.0893
    1DIPC   PO4 6290  25.332   6.394   6.606  0.1025  0.3155 -0.0720
    1DIPC   GL1 6291  25.505   6.493   6.204  0.1874  0.2122  0.1869
    1DIPC   GL2 6292  25.188   6.490   6.004  0.0891  0.0304 -0.2671
    1DIPC   C1A 6293  25.902   6.725   6.036  0.0887 -0.0847 -0.2849
    1DIPC   D2A 6294  25.906   7.025   5.685  0.1019  0.0425  0.0529
    1DIPC   D3A 6295  25.889   6.554   5.566  0.0541 -0.0412 -0.3214
    1DIPC   C4A 6296  25.611   6.320   5.177  0.1873 -0.0372 -0.0276
    1DIPC   C1B 6297  25.015   6.119   6.143  0.0567 -0.2366  0.0702
    1DIPC   D2B 6298  24.861   5.716   6.216  0.2554 -0.1087  0.0884
    1DIPC   D3B 6299  24.524   6.025   6.286 -0.1938 -0.1104 -0.2452
    1DIPC   C4B 6300  24.606   6.368   5.952 -0.1362 -0.0661 -0.1757
    1DIPC   NC3 6301  15.422   4.590   6.944  0.1966  0.3624 -0.1866
    1DIPC   PO4 6302  15.140   4.764   6.649  0.0793 -0.1287  0.2757
    1DIPC   GL1 6303  15.012   4.589   6.280 -0.2413 -0.0345 -0.4246
    1DIPC   GL2 6304  14.635   4.662   6.065  0.1284  0.0824  0.0818
    1DIPC   C1A 6305  15.057   4.390   5.834  0.1303 -0.0539 -0.0688
    1DIPC   D2A 6306  15.238   4.014   5.598 -0.0754 -0.0623  0.2006
    1DIPC   D3A 6307  14.862   3.856   5.798 -0.0153 -0.2928  0.0881
    1DIPC   C4A 6308  14.650   4.116   6.046 -0.0906 -0.2841 -0.1215
    1DIPC   C1B 6309  14.662   4.559   5.606 -0.1003 -0.0595  0.1102
    1DIPC   D2B 6310  15.015   4.478   5.336 -0.1237 -0.2277  0.3668
    1DIPC   D3B 6311  14.704   4.286   5.091 -0.2304 -0.2607  0.1892
    1DIPC   C4B 6312  14.895   4.447   4.712  0.0184 -0.2208 -0.2188
    1DIPC   NC3 6313  24.455   0.133   6.959  0.0715  0.5517 -0.1041
    1DIPC   PO4 6314  24.736   0.226   6.682  0.0613 -0.0522 -0.0714
    1DIPC   GL1 6315  24.795  30.304   6.294 -0.1482  0.2782 -0.0609
    1DIPC   GL2 6316  25.211  30.259   6.367  0.0056  0.2759 -0.2190
    1DIPC   C1A 6317  24.795   0.032   5.856  0.1235 -0.1626 -0.1477
    1DIPC   D2A 6318  24.626  30.335   5.428  0.0243 -0.0557 -0.0508
    1DIPC   D3A 6319  24.535   0.203   5.050  0.1492  0.1476 -0.1439
    1DIPC   C4A 6320  24.826   0.581   4.888 -0.4349  0.0498  0.1231
    1DIPC   C1B 6321  25.403  30.347   6.023  0.4975  0.0465 -0.0014
    1DIPC   D2B 6322  25.241   0.271   5.786  0.0312  0.0645  0.0485
    1DIPC   D3B 6323  24.897   0.567   5.906  0.0632 -0.3498 -0.3288
    1DIPC   C4B 6324  24.550   0.445   5.979  0.0665  0.1733 -0.1491
    1DIPC   NC3 6325  16.470  27.184   6.502  0.2039  0.3020  0.3822
    1DIPC   PO4 6326  16.253  27.564   6.399 -0.0274 -0.3447 -0.2648
    1DIPC   GL1 6327  16.505  27.401   6.039  0.2184 -0.2718  0.2478
    1DIPC   GL2 6328  16.799  27.179   5.950 -0.1633 -0.1118  0.0826
    1DIPC   C1A 6329  16.596  27.531   5.609 -0.1542  0.0924  0.0616
    1DIPC   D2A 6330  16.784  28.049   5.560  0.0525  0.0100 -0.4009
    1DIPC   D3A 6331  16.597  27.868   5.168 -0.2030 -0.0769  0.1624
    1DIPC   C4A 6332  16.475  27.411   5.131 -0.6701  0.0096 -0.0033
    1DIPC   C1B 6333  17.030  27.260   5.563  0.0069 -0.1710 -0.2196
    1DIPC   D2B 6334  17.403  27.195   5.324  0.3185  0.3638 -0.0672
    1DIPC   D3B 6335  17.422  27.559   5.094 -0.3239 -0.1307  0.4070
    1DIPC   C4B 6336  17.411  27.658   4.627  0.1376 -0.0491 -0.1588
    1DIPC   NC3 6337  29.173   0.030   7.121 -0.0217  0.2547  0.0001
    1DIPC   PO4 6338  29.165  30.033   7.348  0.2400  0.0492  0.1834
    1DIPC   GL1 6339  29.273  29.829   6.942  0.0383  0.3878  0.1378
    1DIPC   GL2 6340  29.461  30.003   6.799  0.1315 -0.2465 -0.1075
    1DIPC   C1A 6341  29.074  29.768   6.484 -0.2264  0.0643 -0.3164
    1DIPC   D2A 6342  29.142  29.575   6.184  0.1416  0.2117 -0.2042
    1DIPC   D3A 6343  29.000  29.840   5.768  0.2368  0.1069 -0.0732
    1DIPC   C4A 6344  29.150  30.307   5.436  0.0578  0.0850 -0.1077
    1DIPC   C1B 6345  29.360  30.158   6.377  0.0787  0.0257  0.1280
    1DIPC   D2B 6346  29.754   0.147   6.294 -0.1276  0.0665  0.0197
    1DIPC   D3B 6347  29.605   0.241   5.888 -0.0987  0.0032 -0.0064
    1DIPC   C4B 6348  29.578   0.233   5.435  0.0227  0.1707 -0.0665
    1DIPC   NC3 6349  10.302  24.824   6.013 -0.1361  0.2370  0.1200
    1DIPC   PO4 6350  10.297  25.321   6.157 -0.3390 -0.3880 -0.0706
    1DIPC   GL1 6351  10.097  25.229   5.760  0.0448  0.0521  0.0165
    1DIPC   GL2 6352   9.899  24.944   5.654  0.0621 -0.0899 -0.0277
    1DIPC   C1A 6353  10.052  25.287   5.303  0.0558  0.0170 -0.1887
    1DIPC   D2A 6354   9.863  25.311   4.893  0.1417 -0.2171  0.0743
    1DIPC   D3A 6355  10.129  25.009   4.717 -0.1075 -0.0480  0.0147
    1DIPC   C4A 6356  10.625  25.024   4.438  0.2491 -0.0175  0.1025
    1DIPC   C1B 6357   9.666  25.183   5.550  0.1700  0.0890  0.3065
    1DIPC   D2B 6358   9.188  25.254   5.439  0.2855 -0.0416  0.0204
    1DIPC   D3B 6359   9.371  25.076   5.057  0.0196 -0.2413 -0.1292
    1DIPC   C4B 6360   9.122  24.924   4.725 -0.1610  0.1330  0.1079
    1DIPC   NC3 6361  24.667  11.571   5.936 -0.1702  0.4337 -0.0133
    1DIPC   PO4 6362  25.057  11.356   5.778 -0.0396  0.1496 -0.0524
    1DIPC   GL1 6363  25.181  11.251   5.354 -0.2761  0.2910 -0.0353
    1DIPC   GL2 6364  24.838  11.205   5.315  0.1633  0.0045 -0.0008
    1DIPC   C1A 6365  25.204  11.022   4.917  0.0431  0.0453  0.0631
    1DIPC   D2A 6366  24.942  11.097   4.582  0.2399 -0.2476 -0.0387
    1DIPC   D3A 6367  25.123  10.835   4.270  0.0460 -0.1702  0.0077
    1DIPC   C4A 6368  24.803  10.767   3.914  0.1270 -0.2085 -0.2711
    1DIPC   C1B 6369  24.715  10.989   5.036 -0.2829  0.3385 -0.1983
    1DIPC   D2B 6370  24.868  10.602   4.717 -0.0455 -0.1731 -0.1033
    1DIPC   D3B 6371  24.940  10.361   4.240  0.1681  0.2685 -0.4494
    1DIPC   C4B 6372  25.070  10.335   3.814 -0.0382  0.0494 -0.1461
    1DIPC   NC3 6373   8.105  29.029   6.742  0.1150  0.1412 -0.0724
    1DIPC   PO4 6374   7.914  29.410   6.639  0.1133  0.2287  0.2932
    1DIPC   GL1 6375   7.706  29.166   6.330 -0.3170  0.2096  0.0394
    1DIPC   GL2 6376   7.510  29.527   6.276 -0.0001  0.3055  0.1280
    1DIPC   C1A 6377   7.463  28.842   6.188  0.3298 -0.4102  0.0279
    1DIPC   D2A 6378   7.116  28.563   6.121  0.2618  0.1489 -0.1008
    1DIPC   D3A 6379   7.158  28.372   5.786  0.0217 -0.0725 -0.0643
    1DIPC   C4A 6380   7.047  28.414   5.406 -0.2429  0.0797  0.3041
    1DIPC   C1B 6381   7.501  29.491   5.843  0.1290 -0.0718  0.0863
    1DIPC   D2B 6382   7.287  29.298   5.462  0.0393  0.1203 -0.0417
    1DIPC   D3B 6383   7.736  29.333   5.394 -0.1409 -0.2260  0.3411
    1DIPC   C4B 6384   7.886  28.937   5.278  0.0394  0.1015  0.3919
    1DIPC   NC3 6385  23.419   8.637   5.530 -0.0079  0.0983  0.2480
    1DIPC   PO4 6386  23.233   9.018   5.399  0.2476  0.2309 -0.3297
    1DIPC   GL1 6387  23.468   9.428   5.199  0.1123 -0.0959  0.1657
    1DIPC   GL2 6388  23.818   9.494   5.368  0.2294 -0.2310  0.0466
    1DIPC   C1A 6389  23.495   9.681   4.925 -0.0649  0.2284 -0.1854
    1DIPC   D2A 6390  23.347   9.908   4.486 -0.0573 -0.3221  0.0656
    1DIPC   D3A 6391  23.541  10.097   4.189 -0.2058  0.0464  0.1119
    1DIPC   C4A 6392  23.593  10.439   4.087  0.0620 -0.0724 -0.0178
    1DIPC   C1B 6393  23.974   9.502   4.932  0.0825 -0.2285 -0.1285
    1DIPC   D2B 6394  23.948   9.706   4.567  0.2643 -0.1152  0.2536
    1DIPC   D3B 6395  24.342   9.782   4.463  0.0071 -0.1593  0.2496
    1DIPC   C4B 6396  24.446   9.528   4.189 -0.0610  0.0390 -0.2249
    1DIPC   NC3 6397  21.121  28.200   6.814  0.3892  0.0723 -0.1490
    1DIPC   PO4 6398  21.390  28.517   6.666 -0.1589  0.0825 -0.3547
    1DIPC   GL1 6399  21.569  28.641   6.328 -0.0193  0.2644 -0.2216
    1DIPC   GL2 6400  21.567  28.977   6.245 -0.4155 -0.1162  0.1070
    1DIPC   C1A 6401  21.437  28.572   5.936 -0.1114 -0.3462  0.0203
    1DIPC   D2A 6402  21.322  28.202   5.655 -0.1754 -0.2892  0.0629
    1DIPC   D3A 6403  21.752  28.421   5.547  0.2656 -0.1647 -0.0776
    1DIPC   C4A 6404  21.627  28.667   5.314 -0.1290 -0.1475 -0.0548
    1DIPC   C1B 6405  21.811  29.240   5.887  0.3359  0.0322 -0.0793
    1DIPC   D2B 6406  22.228  29.249   5.747 -0.0660  0.2357 -0.0478
    1DIPC   D3B 6407  22.338  29.298   5.323 -0.2222  0.0785 -0.1544
    1DIPC   C4B 6408  22.385  29.604   5.071  0.0665  0.1853 -0.2027
    1DIPC   NC3 6409  10.206  29.525   6.727  0.2124 -0.0569 -0.1413
    1DIPC   PO4 6410  10.305  29.141   6.850  0.1272 -0.3719 -0.2238
    1DIPC   GL1 6411  10.320  29.039   6.390  0.1492  0.1135 -0.0183
    1DIPC   GL2 6412  10.217  29.379   6.253 -0.0166  0.2444  0.1046
    1DIPC   C1A 6413  10.122  29.091   5.874  0.3082  0.0874 -0.0527
    1DIPC   D2A 6414  10.300  28.995   5.516  0.3776  0.0761 -0.0242
    1DIPC   D3A 6415   9.968  29.320   5.334  0.1127 -0.2628 -0.2213
    1DIPC   C4A 6416   9.534  29.251   5.350  0.0469 -0.2268 -0.1858
    1DIPC   C1B 6417  10.217  29.575   5.903 -0.0869  0.0560 -0.0157
    1DIPC   D2B 6418   9.984  29.826   5.554  0.0640 -0.2634 -0.0926
    1DIPC   D3B 6419   9.897  30.198   5.685 -0.0093 -0.2104 -0.2728
    1DIPC   C4B 6420  10.127   0.244   5.680  0.0731  0.0784  0.2180
    1DIPC   NC3 6421  20.752  11.688   6.487  0.2135  0.2576 -0.0839
    1DIPC   PO4 6422  20.914  12.032   6.299 -0.1688  0.1644  0.1977
    1DIPC   GL1 6423  20.948  12.119   5.849  0.1631 -0.3008 -0.1545
    1DIPC   GL2 6424  21.177  12.227   5.852 -0.1131 -0.0936 -0.3818
    1DIPC   C1A 6425  20.857  11.830   5.482 -0.2842  0.2032 -0.4141
    1DIPC   D2A 6426  20.604  11.678   5.196 -0.0210  0.1649 -0.2624
    1DIPC   D3A 6427  20.839  11.884   4.942  0.1461  0.1653 -0.1973
    1DIPC   C4A 6428  21.235  12.014   5.120 -0.0808 -0.2816  0.0261
    1DIPC   C1B 6429  21.416  12.348   5.419  0.3404 -0.0939 -0.0957
    1DIPC   D2B 6430  21.437  12.461   4.944 -0.0353  0.3265 -0.0029
    1DIPC   D3B 6431  21.416  12.845   4.867  0.0714 -0.0649 -0.3175
    1DIPC   C4B 6432  21.050  13.042   4.746 -0.0382 -0.0806 -0.0227
    1DIPC   NC3 6433  22.934  22.550   6.092  0.1936 -0.0954 -0.0818
    1DIPC   PO4 6434  22.942  22.212   6.265 -0.3250  0.4585  0.0135
    1DIPC   GL1 6435  22.718  22.200   5.767 -0.1829  0.0480 -0.0714
    1DIPC   GL2 6436  22.889  21.984   5.589 -0.1333  0.0617  0.1147
    1DIPC   C1A 6437  22.855  22.510   5.347 -0.0476 -0.1665  0.1197
    1DIPC   D2A 6438  23.172  22.840   5.202  0.3548  0.0374 -0.2190
    1DIPC   D3A 6439  23.401  22.698   4.785  0.3117  0.2923 -0.1533
    1DIPC   C4A 6440  23.637  23.018   4.589  0.0146 -0.0374  0.2856
    1DIPC   C1B 6441  22.852  22.055   5.222  0.0674  0.1294 -0.1846
    1DIPC   D2B 6442  22.715  22.132   4.760 -0.2620  0.0136 -0.3592
    1DIPC   D3B 6443  22.904  22.615   4.842  0.1853  0.0927  0.0394
    1DIPC   C4B 6444  22.953  22.940   4.682  0.1037  0.1880  0.0406
    1DIPC   NC3 6445   1.481   3.805   6.682  0.0863 -0.1088  0.1581
    1DIPC   PO4 6446   1.722   4.166   6.661 -0.1524  0.0821 -0.0742
    1DIPC   GL1 6447   1.592   4.256   6.255 -0.0026  0.1518  0.0703
    1DIPC   GL2 6448   1.696   4.615   6.207  0.0342 -0.1477  0.2975
    1DIPC   C1A 6449   1.644   4.143   5.850 -0.2278  0.3740 -0.0750
    1DIPC   D2A 6450   1.782   3.985   5.518  0.0348 -0.0034  0.3733
    1DIPC   D3A 6451   2.114   4.227   5.402 -0.0477 -0.0452  0.2052
    1DIPC   C4A 6452   2.232   4.007   5.194 -0.1276 -0.3083  0.1066
    1DIPC   C1B 6453   1.485   4.571   5.945  0.3816  0.2160  0.2642
    1DIPC   D2B 6454   1.490   4.432   5.491 -0.1250 -0.0983  0.0980
    1DIPC   D3B 6455   1.449   4.751   5.256 -0.0754  0.1615  0.0296
    1DIPC   C4B 6456   1.260   4.935   5.604  0.0684 -0.3092 -0.0961
    1DIPC   NC3 6457  13.344  13.028   7.349 -0.1481 -0.1373 -0.1521
    1DIPC   PO4 6458  13.519  13.318   7.707 -0.2473 -0.1250  0.0255
    1DIPC   GL1 6459  13.602  13.565   7.210 -0.0024  0.0221 -0.2547
    1DIPC   GL2 6460  13.428  13.453   6.975  0.0214 -0.0466  0.0760
    1DIPC   C1A 6461  13.770  13.845   6.932  0.0211  0.0801  0.0733
    1DIPC   D2A 6462  13.557  14.025   6.606 -0.0595 -0.2121  0.0654
    1DIPC   D3A 6463  13.749  14.434   6.678 -0.1728  0.0695 -0.1307
    1DIPC   C4A 6464  13.683  14.804   6.377 -0.1677  0.1782  0.2041
    1DIPC   C1B 6465  13.465  13.529   6.542 -0.0163  0.2311 -0.0611
    1DIPC   D2B 6466  13.554  13.318   6.155  0.4102 -0.1448  0.0578
    1DIPC   D3B 6467  13.543  13.564   5.708 -0.2468  0.1402  0.1142
    1DIPC   C4B 6468  13.667  13.296   5.377  0.3828 -0.2153  0.1716
    1DIPC   NC3 6469   1.009   7.007   6.659  0.0153  0.0649 -0.0001
    1DIPC   PO4 6470   1.098   6.590   6.540  0.1057  0.0677 -0.0287
    1DIPC   GL1 6471   0.886   6.609   6.181  0.2594 -0.0795  0.2686
    1DIPC   GL2 6472   0.840   6.925   6.098 -0.4018  0.0670  0.3288
    1DIPC   C1A 6473   0.879   6.459   5.869 -0.2116  0.0579 -0.0195
    1DIPC   D2A 6474   0.640   6.462   5.588 -0.0615 -0.0173  0.2383
    1DIPC   D3A 6475   0.665   6.539   5.069  0.0847  0.2452  0.0430
    1DIPC   C4A 6476   0.303   6.486   4.761 -0.0801 -0.1733  0.2776
    1DIPC   C1B 6477   0.917   6.924   5.635 -0.0607 -0.0301 -0.0445
    1DIPC   D2B 6478   0.877   6.973   5.217 -0.0143  0.3414 -0.0576
    1DIPC   D3B 6479   1.101   6.675   4.912 -0.0024 -0.2179  0.1766
    1DIPC   C4B 6480   0.839   6.461   4.642  0.2006  0.2633  0.2501
    1DIPC   NC3 6481  22.957  17.432   5.887 -0.1252  0.0976  0.0770
    1DIPC   PO4 6482  22.970  17.784   5.550 -0.2964  0.1252  0.0108
    1DIPC   GL1 6483  23.096  17.716   5.168  0.1278  0.0456  0.0798
    1DIPC   GL2 6484  23.399  17.777   5.326  0.0100  0.1226 -0.0052
    1DIPC   C1A 6485  22.911  17.853   4.756  0.1849  0.2515 -0.1890
    1DIPC   D2A 6486  22.639  18.103   4.506 -0.0333  0.2716  0.1063
    1DIPC   D3A 6487  22.923  17.949   4.299 -0.2155 -0.2749  0.0118
    1DIPC   C4A 6488  23.281  17.672   4.392 -0.1700 -0.0891  0.0989
    1DIPC   C1B 6489  23.698  17.683   4.970 -0.3365 -0.2633  0.0920
    1DIPC   D2B 6490  23.704  17.845   4.626  0.2230 -0.3312 -0.0717
    1DIPC   D3B 6491  23.730  18.032   4.267 -0.1773 -0.4198 -0.0966
    1DIPC   C4B 6492  24.108  18.031   3.873  0.5079 -0.2939  0.2339
    1DIPC   NC3 6493  11.193   3.146   6.329  0.1342 -0.0772  0.1385
    1DIPC   PO4 6494  11.624   3.063   6.280 -0.2957  0.0720 -0.0702
    1DIPC   GL1 6495  11.608   3.028   5.832 -0.3690  0.0851  0.0889
    1DIPC   GL2 6496  11.710   3.366   5.612  0.1156 -0.0742  0.1038
    1DIPC   C1A 6497  11.651   2.835   5.526 -0.0976  0.1016 -0.0225
    1DIPC   D2A 6498  11.628   2.627   5.206  0.1204  0.1616 -0.2409
    1DIPC   D3A 6499  11.444   2.852   4.900  0.2744 -0.1042  0.0031
    1DIPC   C4A 6500  11.060   2.853   5.116  0.2581  0.0130  0.1293
    1DIPC   C1B 6501  11.776   3.286   5.181  0.1552 -0.1600  0.0138
    1DIPC   D2B 6502  11.852   3.288   4.772 -0.2275 -0.2404 -0.2596
    1DIPC   D3B 6503  11.844   2.907   4.594  0.0024  0.0440  0.0443
    1DIPC   C4B 6504  12.326   2.836   4.470 -0.1394 -0.0053  0.2422
    1DIPC   NC3 6505  17.678  18.996   6.369 -0.0517  0.3079 -0.3175
    1DIPC   PO4 6506  17.639  19.451   6.275 -0.0142  0.1172 -0.2237
    1DIPC   GL1 6507  17.502  19.622   5.978 -0.0992  0.0071 -0.3500
    1DIPC   GL2 6508  17.710  19.821   5.800 -0.0418  0.3840  0.1247
    1DIPC   C1A 6509  17.507  19.382   5.603 -0.0204 -0.3198 -0.0102
    1DIPC   D2A 6510  17.582  19.566   5.197  0.2111  0.2564 -0.0638
    1DIPC   D3A 6511  17.718  19.501   4.836  0.4863  0.0568  0.1753
    1DIPC   C4A 6512  18.110  19.668   4.633  0.3975  0.0047  0.1738
    1DIPC   C1B 6513  17.999  19.585   5.546 -0.0346 -0.0939  0.0178
    1DIPC   D2B 6514  18.321  19.838   5.660 -0.1161  0.0792 -0.0622
    1DIPC   D3B 6515  18.153  20.161   5.754  0.0976  0.4729  0.0201
    1DIPC   C4B 6516  17.884  20.475   5.434  0.1260 -0.3289 -0.0778
    1DIPC   NC3 6517  18.796  20.930   5.826 -0.1302 -0.1882  0.4027
    1DIPC   PO4 6518  18.744  20.579   5.673  0.0713  0.3738 -0.0642
    1DIPC   GL1 6519  19.100  20.590   5.447 -0.3609  0.2382 -0.0487
    1DIPC   GL2 6520  19.368  20.375   5.632 -0.1843  0.1181  0.0360
    1DIPC   C1A 6521  19.220  20.728   5.078  0.6268  0.1030 -0.0804
    1DIPC   D2A 6522  19.555  20.582   4.723  0.0149  0.2079 -0.1961
    1DIPC   D3A 6523  19.540  20.628   4.252 -0.0605 -0.1463  0.0797
    1DIPC   C4A 6524  19.141  20.665   4.052 -0.0783 -0.2620 -0.0736
    1DIPC   C1B 6525  19.533  20.380   5.249  0.2199 -0.1031 -0.2149
    1DIPC   D2B 6526  19.296  20.187   4.879 -0.5332  0.0244 -0.0239
    1DIPC   D3B 6527  19.490  20.135   4.424 -0.3522  0.2012 -0.0272
    1DIPC   C4B 6528  19.404  19.664   4.257  0.1421 -0.1712 -0.1453
    1DIPC   NC3 6529  18.197  27.259   6.861  0.1907 -0.1188  0.3473
    1DIPC   PO4 6530  17.786  27.325   6.901 -0.0205  0.2532  0.2994
    1DIPC   GL1 6531  17.902  27.427   6.377 -0.0839  0.2036  0.1870
    1DIPC   GL2 6532  17.724  27.652   6.228  0.3654 -0.1845  0.0837
    1DIPC   C1A 6533  17.968  27.294   5.972  0.0847 -0.0592  0.1053
    1DIPC   D2A 6534  17.800  27.379   5.531 -0.0681  0.1899  0.0540
    1DIPC   D3A 6535  17.911  27.372   5.061 -0.0907 -0.2884  0.0602
    1DIPC   C4A 6536  18.349  27.447   4.914 -0.1527  0.4680  0.2428
    1DIPC   C1B 6537  17.990  27.769   5.810 -0.0418 -0.6565  0.2046
    1DIPC   D2B 6538  18.156  27.767   5.388  0.1764 -0.0416  0.1838
    1DIPC   D3B 6539  17.805  27.895   5.079  0.0182  0.0012  0.0461
    1DIPC   C4B 6540  17.893  28.332   4.980 -0.0463 -0.0514  0.2005
    1DIPC   NC3 6541  17.300  17.622   6.123  0.0077 -0.0277  0.0174
    1DIPC   PO4 6542  17.261  17.978   5.866  0.3914  0.3115  0.0096
    1DIPC   GL1 6543  17.453  17.744   5.486  0.2152  0.1054 -0.0798
    1DIPC   GL2 6544  17.789  17.678   5.379  0.0111 -0.2769 -0.0039
    1DIPC   C1A 6545  17.140  17.668   5.080 -0.0330 -0.1545 -0.0130
    1DIPC   D2A 6546  16.762  17.489   5.199 -0.3312 -0.0679  0.1524
    1DIPC   D3A 6547  17.052  17.248   4.855  0.1047  0.1510  0.0729
    1DIPC   C4A 6548  17.444  17.040   4.801  0.2685 -0.0259 -0.0303
    1DIPC   C1B 6549  17.718  17.470   4.989  0.0279 -0.0514 -0.0280
    1DIPC   D2B 6550  17.438  17.473   4.600 -0.3274  0.0230 -0.1978
    1DIPC   D3B 6551  17.152  17.278   4.242 -0.1597 -0.0913  0.0377
    1DIPC   C4B 6552  16.714  17.234   4.355 -0.2396  0.2013  0.0194
    1DIPC   NC3 6553  18.004  11.970   6.609  0.2431 -0.1643  0.0991
    1DIPC   PO4 6554  18.491  12.137   6.400 -0.1132  0.3777  0.0902
    1DIPC   GL1 6555  18.523  12.166   5.951 -0.1009  0.1564 -0.0709
    1DIPC   GL2 6556  18.787  12.093   5.848 -0.3026 -0.1453 -0.2220
    1DIPC   C1A 6557  18.291  12.387   5.543  0.0070 -0.1875  0.0419
    1DIPC   D2A 6558  17.780  12.337   5.486 -0.1026  0.2591  0.1608
    1DIPC   D3A 6559  17.912  12.684   5.305  0.1655 -0.0027  0.1221
    1DIPC   C4A 6560  18.047  12.448   4.968  0.0335  0.0235  0.2872
    1DIPC   C1B 6561  19.193  12.352   5.671 -0.2043 -0.1025  0.1539
    1DIPC   D2B 6562  19.458  12.607   5.411 -0.0112 -0.3691 -0.2042
    1DIPC   D3B 6563  19.158  12.316   5.182  0.3342 -0.3054  0.2148
    1DIPC   C4B 6564  18.810  12.379   5.320  0.1116  0.0457 -0.0602
    1DIPC   NC3 6565  24.248  25.865   7.228 -0.0383 -0.0131 -0.0837
    1DIPC   PO4 6566  24.014  25.769   6.847  0.4316  0.0229 -0.0346
    1DIPC   GL1 6567  23.919  25.869   6.374 -0.1451  0.1461  0.3450
    1DIPC   GL2 6568  23.519  25.980   6.274 -0.0158  0.3338  0.2232
    1DIPC   C1A 6569  24.138  25.698   6.033  0.1242 -0.0547 -0.1464
    1DIPC   D2A 6570  24.536  25.512   6.043 -0.3687  0.0735 -0.0119
    1DIPC   D3A 6571  24.385  25.208   5.730 -0.0290 -0.0124 -0.1382
    1DIPC   C4A 6572  24.094  25.164   5.436  0.3979 -0.0779  0.1187
    1DIPC   C1B 6573  23.405  26.280   6.008 -0.0128 -0.0989  0.2617
    1DIPC   D2B 6574  23.456  26.679   5.811 -0.0640  0.0163  0.3358
    1DIPC   D3B 6575  23.844  26.688   5.664  0.1987  0.0005  0.0281
    1DIPC   C4B 6576  24.008  26.550   5.289  0.0130 -0.3034  0.1651
    1DIPC   NC3 6577   9.878  21.537   5.966 -0.0305 -0.2587 -0.0610
    1DIPC   PO4 6578   9.589  21.785   5.993 -0.2972  0.2509  0.0380
    1DIPC   GL1 6579   9.584  21.622   5.534  0.1468  0.0024 -0.0383
    1DIPC   GL2 6580   9.464  21.406   5.389 -0.0500 -0.0066  0.1007
    1DIPC   C1A 6581   9.426  21.796   5.155  0.2334  0.2204 -0.0606
    1DIPC   D2A 6582   9.080  21.819   4.910  0.0421 -0.2528  0.0145
    1DIPC   D3A 6583   9.304  22.090   4.792  0.1250 -0.0969  0.3069
    1DIPC   C4A 6584   9.470  22.180   4.343  0.1304 -0.2563 -0.0997
    1DIPC   C1B 6585   9.042  21.404   5.434  0.1692 -0.1601 -0.1667
    1DIPC   D2B 6586   8.792  21.146   5.381  0.1647 -0.0400 -0.0059
    1DIPC   D3B 6587   9.267  20.984   5.213  0.0996  0.1566 -0.1660
    1DIPC   C4B 6588   9.310  20.623   5.310  0.3890 -0.0103 -0.2985
    1DIPC   NC3 6589  12.845   1.337   6.317 -0.0811 -0.3166 -0.1954
    1DIPC   PO4 6590  12.461   1.515   6.546 -0.1590  0.1273  0.0677
    1DIPC   GL1 6591  12.406   1.732   6.062 -0.1700 -0.0728 -0.2661
    1DIPC   GL2 6592  12.621   1.528   5.918  0.0307  0.2004 -0.2159
    1DIPC   C1A 6593  12.443   2.081   5.789  0.0429  0.0862  0.4678
    1DIPC   D2A 6594  12.551   2.503   5.789 -0.1458  0.0828 -0.1871
    1DIPC   D3A 6595  12.374   2.648   5.364 -0.1166  0.1388 -0.1509
    1DIPC   C4A 6596  12.645   2.893   5.092  0.2965  0.0315  0.0360
    1DIPC   C1B 6597  12.265   1.542   5.551 -0.0119  0.0256  0.3088
    1DIPC   D2B 6598  11.959   1.703   5.320  0.2953  0.0833 -0.0039
    1DIPC   D3B 6599  11.662   1.619   5.654 -0.0663  0.1656  0.2197
    1DIPC   C4B 6600  11.414   1.365   5.471  0.0890 -0.1356  0.4849
    1DIPC   NC3 6601  11.827   6.090   6.472  0.0193 -0.2272  0.3936
    1DIPC   PO4 6602  11.480   5.797   6.333  0.0150  0.3243  0.0214
    1DIPC   GL1 6603  11.385   5.823   5.892  0.0315 -0.1872 -0.1204
    1DIPC   GL2 6604  11.351   5.554   5.662 -0.2014  0.0149 -0.1821
    1DIPC   C1A 6605  11.361   6.018   5.491 -0.1762  0.2072  0.2009
    1DIPC   D2A 6606  11.340   6.281   5.211  0.2635  0.0807  0.2620
    1DIPC   D3A 6607  11.260   6.221   4.825 -0.0260  0.3781  0.4513
    1DIPC   C4A 6608  11.254   6.490   4.465  0.1438 -0.2263 -0.0780
    1DIPC   C1B 6609  10.978   5.468   5.323  0.0593  0.0065  0.0354
    1DIPC   D2B 6610  10.750   5.431   4.912  0.1175 -0.0155  0.2622
    1DIPC   D3B 6611  11.032   5.626   4.757 -0.0574  0.0023  0.0123
    1DIPC   C4B 6612  11.071   5.952   4.421  0.1547  0.0460 -0.0107
    1DIPC   NC3 6613  20.157  29.377   7.355  0.0272 -0.1355 -0.2450
    1DIPC   PO4 6614  20.063  29.060   6.963  0.1673  0.0977 -0.2901
    1DIPC   GL1 6615  19.913  29.145   6.509  0.0570  0.3115 -0.0602
    1DIPC   GL2 6616  20.078  29.314   6.308 -0.0193  0.0636  0.2734
    1DIPC   C1A 6617  19.677  28.953   6.127  0.0687 -0.4411  0.3960
    1DIPC   D2A 6618  19.713  29.094   5.661  0.0659 -0.2332 -0.0659
    1DIPC   D3A 6619  19.561  28.803   5.367  0.0809  0.0494  0.0825
    1DIPC   C4A 6620  19.877  28.758   5.050 -0.0606 -0.1186 -0.0713
    1DIPC   C1B 6621  20.266  29.052   6.109 -0.0054  0.1966 -0.2613
    1DIPC   D2B 6622  20.471  28.820   5.778  0.1853  0.0037  0.1846
    1DIPC   D3B 6623  20.229  29.111   5.548  0.0496 -0.1892  0.0170
    1DIPC   C4B 6624  20.087  29.169   5.208  0.1791  0.1104 -0.2560
    1DIPC   NC3 6625  28.559   6.760   6.709 -0.2066 -0.1850  0.3661
    1DIPC   PO4 6626  28.150   6.444   6.816  0.0694 -0.2021 -0.1412
    1DIPC   GL1 6627  28.193   6.234   6.377 -0.0821  0.0774 -0.0849
    1DIPC   GL2 6628  28.073   5.863   6.384 -0.1236  0.0821  0.1136
    1DIPC   C1A 6629  28.415   6.061   5.997 -0.2598  0.0318  0.0186
    1DIPC   D2A 6630  28.544   6.274   5.639  0.2428  0.1195  0.1014
    1DIPC   D3A 6631  28.116   6.224   5.610  0.2820 -0.1883 -0.2457
    1DIPC   C4A 6632  27.955   5.932   5.460  0.1616  0.0350  0.0812
    1DIPC   C1B 6633  27.921   5.793   5.947 -0.1112 -0.0748 -0.0078
    1DIPC   D2B 6634  28.005   5.452   5.690  0.0003  0.0291  0.1598
    1DIPC   D3B 6635  28.368   5.678   5.519 -0.0780 -0.1164 -0.0207
    1DIPC   C4B 6636  28.419   5.986   5.274 -0.0574 -0.1076  0.0765
    1DIPC   NC3 6637  20.890  19.441   6.397  0.1872 -0.0887 -0.0015
    1DIPC   PO4 6638  21.049  19.660   5.964 -0.5362  0.0343 -0.0630
    1DIPC   GL1 6639  20.940  19.828   5.563 -0.0507 -0.2518  0.0611
    1DIPC   GL2 6640  20.626  19.764   5.410 -0.3492  0.1743  0.0087
    1DIPC   C1A 6641  21.028  19.668   5.165 -0.1360 -0.1202  0.3820
    1DIPC   D2A 6642  20.944  19.220   5.045  0.0896  0.1946 -0.3084
    1DIPC   D3A 6643  21.230  19.044   4.803 -0.3608 -0.1571 -0.0670
    1DIPC   C4A 6644  21.172  18.719   4.612 -0.0869 -0.2576 -0.1343
    1DIPC   C1B 6645  20.641  19.980   5.005  0.0851  0.0890 -0.0248
    1DIPC   D2B 6646  20.609  19.639   4.706 -0.1164  0.0193  0.1373
    1DIPC   D3B 6647  20.357  19.697   4.371  0.1009 -0.2135  0.1062
    1DIPC   C4B 6648  20.620  19.735   4.011 -0.1839 -0.1809  0.2787
    1DIPC   NC3 6649  14.722   6.707   5.996  0.3320  0.0651 -0.1456
    1DIPC   PO4 6650  14.350   6.425   5.991 -0.1941 -0.2033 -0.1622
    1DIPC   GL1 6651  14.233   6.112   5.712  0.4033  0.0109  0.1522
    1DIPC   GL2 6652  14.233   5.789   5.808 -0.0601  0.2610  0.1355
    1DIPC   C1A 6653  14.350   5.967   5.333  0.0640 -0.0517  0.1712
    1DIPC   D2A 6654  14.670   5.841   4.939  0.0934  0.1014 -0.2080
    1DIPC   D3A 6655  14.358   6.075   4.654  0.0945  0.1818 -0.2665
    1DIPC   C4A 6656  14.161   5.828   4.295  0.1688 -0.2964  0.2353
    1DIPC   C1B 6657  14.314   5.388   5.462  0.1189 -0.0984  0.0662
    1DIPC   D2B 6658  14.046   5.221   5.069 -0.1410 -0.1351 -0.3398
    1DIPC   D3B 6659  13.747   5.306   4.773  0.1548 -0.0735  0.1924
    1DIPC   C4B 6660  13.626   4.931   4.365  0.0972  0.4262  0.2782
    1DIPC   NC3 6661  21.190   2.427   7.206 -0.1130 -0.1134 -0.0363
    1DIPC   PO4 6662  21.060   2.745   7.079  0.0544 -0.1526  0.0424
    1DIPC   GL1 6663  20.924   2.570   6.627  0.1225 -0.2957 -0.1657
    1DIPC   GL2 6664  21.101   2.332   6.371 -0.1671 -0.1864 -0.0655
    1DIPC   C1A 6665  20.466   2.515   6.450 -0.1347  0.1466  0.1583
    1DIPC   D2A 6666  20.198   2.641   6.036 -0.1552  0.1230  0.1836
    1DIPC   D3A 6667  20.300   2.559   5.624  0.1933 -0.1412 -0.1556
    1DIPC   C4A 6668  20.241   2.727   5.112  0.0529 -0.1218 -0.1691
    1DIPC   C1B 6669  21.400   2.271   6.105 -0.0883 -0.0156 -0.0783
    1DIPC   D2B 6670  21.278   2.204   5.717 -0.2182 -0.2379 -0.0415
    1DIPC   D3B 6671  21.634   2.186   5.396 -0.0860  0.1270 -0.0463
    1DIPC   C4B 6672  22.055   2.159   5.504 -0.2521 -0.0405  0.2967
    1DIPC   NC3 6673  15.991   7.511   5.301  0.1463  0.2888 -0.0668
    1DIPC   PO4 6674  16.376   7.701   5.351 -0.2505 -0.2654 -0.0954
    1DIPC   GL1 6675  16.250   7.825   4.958 -0.0637  0.1350 -0.1068
    1DIPC   GL2 6676  16.005   7.905   4.981  0.0354  0.0408 -0.0926
    1DIPC   C1A 6677  16.399   7.673   4.586  0.0166  0.1487 -0.0252
    1DIPC   D2A 6678  16.212   7.604   4.199  0.1610 -0.0790 -0.0056
    1DIPC   D3A 6679  16.365   7.456   3.852  0.0593  0.1690 -0.2805
    1DIPC   C4A 6680  16.631   7.685   3.703 -0.1723  0.1366 -0.1297
    1DIPC   C1B 6681  15.864   8.367   4.746  0.1802 -0.2560  0.0524
    1DIPC   D2B 6682  15.482   8.427   4.445 -0.0092 -0.0591 -0.0862
    1DIPC   D3B 6683  15.517   8.563   4.055 -0.1982  0.0515  0.1739
    1DIPC   C4B 6684  15.214   8.363   3.766  0.1630 -0.1936 -0.1572
    1DIPC   NC3 6685   2.289   1.212   7.223  0.1700 -0.2193 -0.1027
    1DIPC   PO4 6686   2.336   0.728   7.172 -0.1717  0.0493  0.1528
    1DIPC   GL1 6687   2.215   0.788   6.761 -0.2144  0.2065 -0.0690
    1DIPC   GL2 6688   2.442   0.711   6.617  0.0033  0.0035 -0.3899
    1DIPC   C1A 6689   2.250   1.069   6.373  0.2131  0.1773  0.1858
    1DIPC   D2A 6690   2.469   1.344   6.073  0.0693  0.1776 -0.3253
    1DIPC   D3A 6691   2.356   1.625   5.738 -0.2719  0.2070  0.0672
    1DIPC   C4A 6692   1.808   1.597   5.557  0.2448 -0.1057 -0.3242
    1DIPC   C1B 6693   2.746   0.881   6.377  0.2026 -0.0508 -0.0575
    1DIPC   D2B 6694   2.557   0.884   5.962 -0.0425 -0.1431  0.2154
    1DIPC   D3B 6695   2.839   1.073   5.662  0.0826 -0.3701 -0.1761
    1DIPC   C4B 6696   2.661   0.799   5.414  0.1500  0.0409 -0.2198
    1DIPC   NC3 6697  17.487   4.056   6.547  0.0439 -0.0606  0.1717
    1DIPC   PO4 6698  17.399   4.097   6.085  0.1047  0.1569  0.0045
    1DIPC   GL1 6699  17.676   4.015   5.789 -0.0089 -0.3691  0.1466
    1DIPC   GL2 6700  17.953   3.723   5.829  0.1548  0.1908  0.1062
    1DIPC   C1A 6701  17.948   4.250   5.457 -0.1837 -0.0488  0.1978
    1DIPC   D2A 6702  17.835   4.203   5.106 -0.2100 -0.2045 -0.1770
    1DIPC   D3A 6703  17.802   4.224   4.721  0.0385 -0.3046 -0.0970
    1DIPC   C4A 6704  17.861   4.618   4.424  0.0245 -0.0411 -0.3268
    1DIPC   C1B 6705  18.250   3.905   5.524 -0.1435  0.1399 -0.1989
    1DIPC   D2B 6706  18.411   4.182   5.212  0.1992 -0.3998  0.1140
    1DIPC   D3B 6707  18.355   4.124   4.763 -0.5988  0.1502  0.0326
    1DIPC   C4B 6708  18.527   4.411   4.472  0.0101  0.1383  0.0921
    1DIPC   NC3 6709   7.898  24.388   6.460 -0.0333  0.3253 -0.0134
    1DIPC   PO4 6710   8.108  24.425   6.179 -0.1855  0.0709  0.3630
    1DIPC   GL1 6711   8.237  24.411   5.763 -0.1786  0.3650 -0.1149
    1DIPC   GL2 6712   7.957  24.480   5.674 -0.1505  0.0789  0.0145
    1DIPC   C1A 6713   8.316  24.458   5.316 -0.1929  0.0137 -0.1986
    1DIPC   D2A 6714   8.127  24.451   4.920  0.4203  0.1637  0.2449
    1DIPC   D3A 6715   8.445  24.288   4.664 -0.1818  0.0170  0.0372
    1DIPC   C4A 6716   8.663  24.209   5.048 -0.0990 -0.3426 -0.2385
    1DIPC   C1B 6717   7.620  24.729   5.630 -0.0108  0.2611 -0.0805
    1DIPC   D2B 6718   7.274  24.718   5.352 -0.0059 -0.2877  0.0240
    1DIPC   D3B 6719   7.252  24.768   4.892 -0.1795  0.2010  0.0823
    1DIPC   C4B 6720   7.137  24.683   4.604 -0.1608  0.2213 -0.1375
    1DIPC   NC3 6721  29.250   0.927   7.647  0.0027 -0.1558 -0.3529
    1DIPC   PO4 6722  28.855   0.817   7.428  0.0159  0.0458 -0.3002
    1DIPC   GL1 6723  29.225   0.759   7.165  0.0308  0.4857 -0.1484
    1DIPC   GL2 6724  29.276   1.036   7.062 -0.1242  0.0349  0.0001
    1DIPC   C1A 6725  29.555   0.690   6.811 -0.1801 -0.3494 -0.0315
    1DIPC   D2A 6726  29.524   0.664   6.382  0.1728 -0.2361 -0.3185
    1DIPC   D3A 6727  29.245   0.921   6.145 -0.0711 -0.0671  0.0460
    1DIPC   C4A 6728  28.812   0.857   6.345  0.1742  0.0829 -0.1304
    1DIPC   C1B 6729  29.243   1.101   6.630  0.0979 -0.2218  0.1562
    1DIPC   D2B 6730  29.105   1.406   6.288  0.0324  0.4351  0.1627
    1DIPC   D3B 6731  28.672   1.354   6.075 -0.1539  0.0412 -0.1292
    1DIPC   C4B 6732  28.345   1.586   6.134 -0.3512 -0.0970 -0.2457
    1DIPC   NC3 6733  25.051  23.338   6.860 -0.1271  0.0357  0.0526
    1DIPC   PO4 6734  25.062  23.210   6.508  0.0132 -0.3283  0.1064
    1DIPC   GL1 6735  25.355  23.320   6.123  0.0580  0.0632  0.1428
    1DIPC   GL2 6736  25.493  23.598   6.050  0.1785  0.0270 -0.0679
    1DIPC   C1A 6737  25.349  23.288   5.706 -0.0533  0.3413  0.0855
    1DIPC   D2A 6738  25.230  23.482   5.332 -0.0334  0.0615  0.2507
    1DIPC   D3A 6739  25.486  23.809   5.095 -0.0463 -0.1041 -0.0543
    1DIPC   C4A 6740  25.768  23.627   4.804 -0.2366  0.2417 -0.0310
    1DIPC   C1B 6741  25.342  23.795   5.702 -0.1638 -0.3427 -0.0744
    1DIPC   D2B 6742  24.891  23.860   5.485  0.0047 -0.1932  0.1610
    1DIPC   D3B 6743  24.891  23.803   5.079 -0.0253  0.1033  0.0302
    1DIPC   C4B 6744  24.840  23.375   5.009  0.0415  0.0831 -0.0449
    1DIPC   NC3 6745  24.392  16.744   6.149 -0.0629 -0.0859  0.1061
    1DIPC   PO4 6746  23.971  16.800   5.863 -0.2088 -0.1622 -0.2597
    1DIPC   GL1 6747  24.347  16.656   5.569  0.0786  0.2478 -0.2622
    1DIPC   GL2 6748  24.335  16.340   5.369  0.1226 -0.2318  0.0379
    1DIPC   C1A 6749  24.435  16.813   5.074 -0.2815  0.0841 -0.1489
    1DIPC   D2A 6750  24.392  16.775   4.541 -0.2483 -0.2768  0.2495
    1DIPC   D3A 6751  23.935  16.842   4.455 -0.1224 -0.1677  0.1170
    1DIPC   C4A 6752  23.740  16.916   4.110 -0.0728 -0.1304 -0.0095
    1DIPC   C1B 6753  23.932  16.571   5.241  0.0064 -0.0080 -0.0474
    1DIPC   D2B 6754  23.667  16.735   4.915  0.0909  0.0881 -0.0067
    1DIPC   D3B 6755  23.600  16.507   4.485  0.2948  0.1143  0.0786
    1DIPC   C4B 6756  23.309  16.643   4.124  0.1882  0.0998 -0.0405
    1DIPC   NC3 6757  21.060  13.920   5.960  0.2990 -0.0070  0.3020
    1DIPC   PO4 6758  20.646  13.977   6.110  0.1599 -0.0724  0.0612
    1DIPC   GL1 6759  20.661  14.200   5.697  0.0255 -0.1185  0.1832
    1DIPC   GL2 6760  20.383  14.385   5.632  0.0977 -0.2388 -0.1708
    1DIPC   C1A 6761  20.799  14.339   5.289 -0.1958  0.0041  0.0396
    1DIPC   D2A 6762  20.710  14.132   4.871  0.0337  0.1249 -0.1550
    1DIPC   D3A 6763  20.341  14.365   4.752  0.0461  0.0676 -0.0396
    1DIPC   C4A 6764  19.924  14.344   4.587  0.1885 -0.1622 -0.2328
    1DIPC   C1B 6765  20.352  14.143   5.302 -0.1514 -0.1507 -0.1628
    1DIPC   D2B 6766  20.193  13.703   5.207 -0.0727 -0.2344 -0.0783
    1DIPC   D3B 6767  19.873  13.463   5.015  0.1552  0.0546 -0.0460
    1DIPC   C4B 6768  20.006  13.305   4.540  0.0038 -0.0703  0.2893
    1DIPC   NC3 6769  18.764  25.109   6.280  0.2591  0.3984  0.5064
    1DIPC   PO4 6770  18.313  24.961   6.123  0.2108 -0.1921  0.1084
    1DIPC   GL1 6771  18.615  24.698   5.812  0.2924  0.0829 -0.2351
    1DIPC   GL2 6772  18.769  24.955   5.802  0.1484  0.0844  0.3530
    1DIPC   C1A 6773  18.820  24.442   5.434  0.0451 -0.0335 -0.0548
    1DIPC   D2A 6774  19.127  24.427   5.053 -0.0954 -0.0045  0.1619
    1DIPC   D3A 6775  18.622  24.453   4.969  0.2967  0.0319  0.1082
    1DIPC   C4A 6776  18.319  24.786   5.288 -0.0220 -0.2230  0.0378
    1DIPC   C1B 6777  18.611  25.263   5.492  0.0454  0.0295  0.0258
    1DIPC   D2B 6778  18.425  25.470   5.118  0.1601 -0.2643  0.1265
    1DIPC   D3B 6779  18.508  25.804   5.302 -0.1670  0.2056 -0.0860
    1DIPC   C4B 6780  18.764  25.744   5.613 -0.2649  0.0267 -0.1120
    1DIPC   NC3 6781  13.584   0.986   6.675  0.0981 -0.2383  0.0645
    1DIPC   PO4 6782  13.938   1.009   6.478 -0.0355  0.1174  0.3616
    1DIPC   GL1 6783  13.908   1.110   6.064  0.3999  0.1245  0.1658
    1DIPC   GL2 6784  13.792   1.373   5.902 -0.1353  0.1551  0.0432
    1DIPC   C1A 6785  13.947   0.883   5.746 -0.0102  0.0489 -0.1677
    1DIPC   D2A 6786  13.650   0.728   5.432  0.2044  0.6646 -0.0523
    1DIPC   D3A 6787  13.894   0.315   5.505 -0.0467 -0.0071  0.0780
    1DIPC   C4A 6788  14.222   0.046   5.498 -0.2251 -0.0077  0.0075
    1DIPC   C1B 6789  13.792   1.266   5.443  0.2611  0.1039  0.1612
    1DIPC   D2B 6790  13.933   1.708   5.115  0.2318  0.1269  0.2475
    1DIPC   D3B 6791  14.273   1.526   5.193 -0.2909  0.1799  0.3492
    1DIPC   C4B 6792  14.321   1.147   5.469 -0.0403  0.0853 -0.2988
    1DIPC   NC3 6793  26.733  27.762   7.410 -0.0133 -0.3465 -0.0866
    1DIPC   PO4 6794  27.154  27.847   7.046  0.2047  0.2767 -0.2429
    1DIPC   GL1 6795  26.770  27.564   6.944 -0.0549  0.1664 -0.3304
    1DIPC   GL2 6796  26.911  27.235   6.883  0.0986 -0.2590  0.0184
    1DIPC   C1A 6797  26.439  27.775   6.701 -0.0655  0.3983 -0.2652
    1DIPC   D2A 6798  26.009  27.789   6.594 -0.0988 -0.1407 -0.1646
    1DIPC   D3A 6799  25.939  27.661   6.122 -0.1321  0.1697  0.3373
    1DIPC   C4A 6800  25.499  27.357   6.165  0.0870 -0.1640 -0.2278
    1DIPC   C1B 6801  26.790  27.425   6.466  0.0632  0.2056  0.0962
    1DIPC   D2B 6802  26.920  27.719   6.210  0.1795 -0.0289 -0.1791
    1DIPC   D3B 6803  26.726  27.789   5.754  0.0136 -0.1469 -0.0843
    1DIPC   C4B 6804  26.225  27.795   5.781  0.0394  0.2277 -0.1831
    1DIPC   NC3 6805  12.031  28.371   6.847 -0.0638 -0.1258  0.1984
    1DIPC   PO4 6806  12.411  28.615   6.845 -0.2288 -0.1296 -0.1918
    1DIPC   GL1 6807  12.308  28.615   6.389 -0.2687 -0.0065  0.1141
    1DIPC   GL2 6808  12.579  28.584   6.182  0.1588  0.0143  0.3614
    1DIPC   C1A 6809  12.115  28.725   5.975 -0.1212  0.0311  0.1566
    1DIPC   D2A 6810  11.912  28.704   5.650 -0.1703 -0.2688 -0.3265
    1DIPC   D3A 6811  12.092  28.664   5.226  0.2903  0.1925  0.1467
    1DIPC   C4A 6812  11.827  28.509   4.933 -0.4070  0.1852 -0.0507
    1DIPC   C1B 6813  12.403  28.189   6.191  0.0885  0.0379 -0.2836
    1DIPC   D2B 6814  12.341  27.812   6.343 -0.0097 -0.1499 -0.1397
    1DIPC   D3B 6815  12.021  27.540   6.187  0.2425 -0.1464  0.2955
    1DIPC   C4B 6816  12.025  27.803   5.809  0.3883 -0.0667 -0.1431
    1DIPC   NC3 6817  13.797  18.929   5.609 -0.0870 -0.0513  0.2640
    1DIPC   PO4 6818  13.948  19.334   5.610 -0.3097  0.1302 -0.0139
    1DIPC   GL1 6819  13.656  19.287   5.307  0.0168 -0.1642 -0.3118
    1DIPC   GL2 6820  13.367  19.420   5.392  0.1661 -0.1043  0.0790
    1DIPC   C1A 6821  13.706  19.336   4.826 -0.2469  0.2274  0.0896
    1DIPC   D2A 6822  13.510  19.277   4.531  0.2159  0.0783 -0.1490
    1DIPC   D3A 6823  13.864  19.354   4.345 -0.0090  0.2207  0.0131
    1DIPC   C4A 6824  13.791  19.804   4.491 -0.0890 -0.1864 -0.0457
    1DIPC   C1B 6825  13.209  19.391   5.008 -0.0802  0.1667  0.1431
    1DIPC   D2B 6826  13.306  19.715   4.724  0.0984 -0.0784 -0.3325
    1DIPC   D3B 6827  13.263  19.696   4.239 -0.0624 -0.0365 -0.1544
    1DIPC   C4B 6828  13.597  19.532   3.945 -0.0362  0.0917 -0.1795
    1DIPC   NC3 6829  23.499  11.003   5.778 -0.2582 -0.1115 -0.0029
    1DIPC   PO4 6830  23.564  10.577   5.879  0.0088 -0.1769  0.0284
    1DIPC   GL1 6831  23.692  10.484   5.535 -0.0101 -0.0872 -0.0431
    1DIPC   GL2 6832  23.883  10.598   5.318 -0.0989 -0.0215  0.0038
    1DIPC   C1A 6833  23.468  10.426   4.991  0.2524 -0.2523 -0.4448
    1DIPC   D2A 6834  23.339  10.454   4.604  0.2314  0.3142  0.2402
    1DIPC   D3A 6835  23.403  10.879   4.480 -0.1589  0.0785 -0.2031
    1DIPC   C4A 6836  23.322  10.922   4.135 -0.2816 -0.1090 -0.1649
    1DIPC   C1B 6837  23.926  10.596   4.928  0.2557 -0.2909  0.1550
    1DIPC   D2B 6838  23.807  10.542   4.557 -0.1557  0.1527  0.0138
    1DIPC   D3B 6839  23.959  10.754   4.252 -0.0176 -0.3357  0.2971
    1DIPC   C4B 6840  24.180  10.734   3.814 -0.1717  0.2142 -0.4792
    1DIPC   NC3 6841  12.128  20.944   6.163  0.2023 -0.0617  0.0226
    1DIPC   PO4 6842  12.328  21.236   6.023  0.2582  0.0744 -0.0986
    1DIPC   GL1 6843  12.330  21.431   5.638  0.0437  0.0115  0.1607
    1DIPC   GL2 6844  12.366  21.734   5.597 -0.2568  0.0373  0.0488
    1DIPC   C1A 6845  11.953  21.307   5.279 -0.1894 -0.2398  0.2582
    1DIPC   D2A 6846  11.713  21.526   4.993 -0.0058  0.0879 -0.4218
    1DIPC   D3A 6847  11.832  21.255   4.694 -0.0260 -0.1316 -0.0080
    1DIPC   C4A 6848  11.563  21.262   4.198  0.0124 -0.0026  0.2496
    1DIPC   C1B 6849  11.978  21.814   5.269  0.0911  0.4806 -0.2996
    1DIPC   D2B 6850  11.964  21.935   4.903  0.0405 -0.1447 -0.3386
    1DIPC   D3B 6851  12.149  21.611   4.693 -0.1958 -0.1225 -0.0178
    1DIPC   C4B 6852  12.293  21.177   4.899 -0.2596 -0.0562  0.1771
    1DIPC   NC3 6853   1.344   1.410   7.130  0.3755 -0.2338 -0.1215
    1DIPC   PO4 6854   0.942   1.643   6.926 -0.1417 -0.1374 -0.1253
    1DIPC   GL1 6855   1.165   1.503   6.688  0.2642  0.0403 -0.0783
    1DIPC   GL2 6856   1.519   1.527   6.513  0.1993  0.0328  0.2509
    1DIPC   C1A 6857   1.162   1.261   6.320 -0.1879 -0.1329 -0.0236
    1DIPC   D2A 6858   0.919   0.917   6.181  0.2660 -0.0129 -0.1023
    1DIPC   D3A 6859   1.029   0.501   5.968  0.3262  0.0264  0.1662
    1DIPC   C4A 6860   1.130   0.396   5.456  0.1146  0.0198 -0.2956
    1DIPC   C1B 6861   1.184   1.772   6.252 -0.0028  0.3174 -0.1141
    1DIPC   D2B 6862   0.876   2.143   6.177 -0.1447 -0.3296  0.0066
    1DIPC   D3B 6863   0.874   2.133   5.756  0.2736  0.0804  0.3019
    1DIPC   C4B 6864   1.160   1.780   5.762 -0.0790  0.0282 -0.0665
    1DIPC   NC3 6865  13.362   9.418   7.187 -0.0326  0.1941  0.3583
    1DIPC   PO4 6866  13.361   9.356   6.766 -0.2920  0.1334  0.0672
    1DIPC   GL1 6867  13.355   9.481   6.353 -0.2640  0.1187  0.1879
    1DIPC   GL2 6868  13.348   9.769   6.437 -0.0129 -0.3527  0.0574
    1DIPC   C1A 6869  13.534   9.429   6.030 -0.1168 -0.2116 -0.2444
    1DIPC   D2A 6870  13.339   9.235   5.581  0.3140 -0.2974 -0.0167
    1DIPC   D3A 6871  13.349   9.360   5.172 -0.0578 -0.1727  0.3525
    1DIPC   C4A 6872  13.002   9.480   4.807 -0.2314 -0.0524 -0.5917
    1DIPC   C1B 6873  13.216   9.936   6.113 -0.0046 -0.1654  0.0213
    1DIPC   D2B 6874  13.406  10.247   5.838 -0.0712 -0.0603 -0.0764
    1DIPC   D3B 6875  13.166  10.256   5.462 -0.2692  0.0369  0.1122
    1DIPC   C4B 6876  13.370  10.382   5.094 -0.0002  0.2400 -0.1019
    1DIPC   NC3 6877  19.997  30.234   6.886 -0.3362  0.0263 -0.1982
    1DIPC   PO4 6878  20.324  30.256   6.577 -0.1545  0.0435 -0.3021
    1DIPC   GL1 6879  20.205  30.153   6.193  0.1433 -0.1092  0.0514
    1DIPC   GL2 6880  20.509  30.111   5.951 -0.4130  0.3732 -0.0847
    1DIPC   C1A 6881  20.001  30.037   5.739 -0.3172 -0.1432 -0.0345
    1DIPC   D2A 6882  20.094  30.018   5.378 -0.0253 -0.0258 -0.1960
    1DIPC   D3A 6883  20.009   0.036   5.202  0.1091 -0.0890  0.3125
    1DIPC   C4A 6884  19.695   0.106   4.755 -0.3799  0.0914 -0.1184
    1DIPC   C1B 6885  20.877   0.038   5.806  0.3009  0.0946  0.1531
    1DIPC   D2B 6886  21.232   0.012   5.542  0.2101  0.1316  0.0073
    1DIPC   D3B 6887  21.446   0.193   5.958 -0.0322  0.1354  0.0672
    1DIPC   C4B 6888  21.832   0.189   5.883  0.0859 -0.0134 -0.0278
    1DIPC   NC3 6889  10.176   0.961   6.638 -0.2814  0.1825  0.3074
    1DIPC   PO4 6890   9.696   0.957   6.588 -0.1121  0.0668 -0.1285
    1DIPC   GL1 6891   9.472   0.918   6.221  0.0849 -0.1589 -0.0289
    1DIPC   GL2 6892   9.140   1.152   6.163  0.0580  0.0938  0.1128
    1DIPC   C1A 6893   9.309   0.754   5.819 -0.0642 -0.0187  0.1961
    1DIPC   D2A 6894   9.137   0.746   5.397  0.0772  0.1521 -0.3683
    1DIPC   D3A 6895   9.400   1.177   5.228 -0.1049 -0.1285 -0.1799
    1DIPC   C4A 6896   9.564   1.532   5.043 -0.2069  0.2235 -0.0490
    1DIPC   C1B 6897   8.984   1.185   5.687  0.0979 -0.1136 -0.0075
    1DIPC   D2B 6898   8.929   1.303   5.253 -0.0084  0.0864 -0.2852
    1DIPC   D3B 6899   8.776   1.588   4.908 -0.2914 -0.1874 -0.1059
    1DIPC   C4B 6900   8.803   1.660   4.390 -0.0230  0.2575  0.1982
    1DIPC   NC3 6901   4.646  26.157   6.634  0.0523 -0.1715  0.2389
    1DIPC   PO4 6902   4.205  26.204   6.779  0.0937  0.3116  0.0591
    1DIPC   GL1 6903   4.208  25.873   6.452 -0.0668  0.2435  0.1879
    1DIPC   GL2 6904   4.190  26.182   6.246  0.1380 -0.2675 -0.0313
    1DIPC   C1A 6905   4.522  25.799   6.033  0.1065 -0.0792 -0.0112
    1DIPC   D2A 6906   4.756  25.941   5.592 -0.2249  0.0772  0.1659
    1DIPC   D3A 6907   4.628  25.687   5.165 -0.2739  0.1326 -0.3481
    1DIPC   C4A 6908   4.211  25.655   5.055  0.0985  0.1948  0.1700
    1DIPC   C1B 6909   4.069  25.959   5.886  0.0234  0.3090 -0.1343
    1DIPC   D2B 6910   3.809  25.841   5.507  0.1564 -0.1605  0.0521
    1DIPC   D3B 6911   4.133  26.068   5.306 -0.0079  0.0920 -0.1126
    1DIPC   C4B 6912   4.091  26.454   4.954 -0.1146 -0.2326 -0.1295
    1DIPC   NC3 6913  23.269  27.767   6.578 -0.4966  0.1005 -0.1457
    1DIPC   PO4 6914  23.040  28.118   6.553  0.0189 -0.0028  0.3140
    1DIPC   GL1 6915  22.801  28.200   6.172  0.0435 -0.0633  0.2242
    1DIPC   GL2 6916  22.530  28.365   6.174 -0.2660 -0.2334  0.2291
    1DIPC   C1A 6917  22.746  28.207   5.720  0.1298  0.0279 -0.2732
    1DIPC   D2A 6918  22.930  27.915   5.505  0.3188  0.3021  0.2062
    1DIPC   D3A 6919  23.151  27.785   5.074 -0.0677  0.1476  0.0627
    1DIPC   C4A 6920  23.259  28.200   4.954 -0.1431  0.1337 -0.0697
    1DIPC   C1B 6921  22.241  28.309   5.854 -0.0299  0.2799  0.1291
    1DIPC   D2B 6922  22.130  28.028   5.528 -0.2916  0.0377  0.0129
    1DIPC   D3B 6923  22.079  28.390   5.097  0.0633 -0.3693 -0.3871
    1DIPC   C4B 6924  22.297  28.872   5.061  0.2694 -0.0141 -0.1171
    1DIPC   NC3 6925  23.439  13.676   6.083 -0.1943 -0.4217 -0.3185
    1DIPC   PO4 6926  23.769  13.903   5.879 -0.0194 -0.0522  0.0922
    1DIPC   GL1 6927  23.985  13.840   5.495  0.1894 -0.1111  0.2793
    1DIPC   GL2 6928  24.026  14.118   5.207 -0.3020  0.0019 -0.0302
    1DIPC   C1A 6929  24.336  13.661   5.117  0.0855  0.0731  0.0469
    1DIPC   D2A 6930  24.364  13.786   4.686  0.0549  0.0571 -0.3787
    1DIPC   D3A 6931  24.661  13.595   4.454  0.1278  0.1316  0.1478
    1DIPC   C4A 6932  25.008  13.345   4.636  0.2109 -0.2819 -0.0540
    1DIPC   C1B 6933  23.991  14.166   4.792  0.1497 -0.2766  0.1065
    1DIPC   D2B 6934  23.919  14.349   4.371  0.1846 -0.3274  0.2382
    1DIPC   D3B 6935  23.824  14.639   4.728 -0.3996 -0.1915  0.0750
    1DIPC   C4B 6936  24.140  14.651   5.023 -0.0151  0.2250  0.2909
    1DIPC   NC3 6937   3.895  29.330   7.133 -0.5019 -0.1337  0.0617
    1DIPC   PO4 6938   4.028  29.825   7.314  0.1201  0.0014  0.2462
    1DIPC   GL1 6939   3.924  30.031   7.034 -0.1661  0.0653 -0.0069
    1DIPC   GL2 6940   3.998  29.836   6.720 -0.0868 -0.2460  0.1317
    1DIPC   C1A 6941   3.570  30.188   6.662  0.1416  0.0768 -0.3142
    1DIPC   D2A 6942   3.331  30.287   6.285  0.1223 -0.2437  0.1573
    1DIPC   D3A 6943   3.479   0.321   6.451  0.1846  0.1585 -0.2000
    1DIPC   C4A 6944   3.561   0.696   6.141 -0.1808  0.2935 -0.0429
    1DIPC   C1B 6945   3.896  30.066   6.331  0.1673 -0.1816 -0.3937
    1DIPC   D2B 6946   3.817   0.038   6.047  0.1617 -0.1329 -0.3810
    1DIPC   D3B 6947   4.242   0.002   5.801 -0.0836  0.1561 -0.1349
    1DIPC   C4B 6948   4.509   0.291   5.649  0.1648 -0.2568  0.1054
    1DIPC   NC3 6949  18.537  13.383   6.673 -0.0762  0.4797 -0.1807
    1DIPC   PO4 6950  18.647  13.785   6.479  0.2502  0.1967 -0.0422
    1DIPC   GL1 6951  18.875  13.793   6.127 -0.1061  0.1920 -0.1806
    1DIPC   GL2 6952  19.042  13.665   5.918 -0.0260  0.0964 -0.3627
    1DIPC   C1A 6953  19.033  14.132   5.862  0.0278  0.0790 -0.3408
    1DIPC   D2A 6954  18.787  14.222   5.489  0.2595  0.0304 -0.1019
    1DIPC   D3A 6955  18.686  14.512   5.213 -0.0435  0.1073  0.1289
    1DIPC   C4A 6956  18.817  14.688   4.775 -0.2362 -0.3515 -0.1290
    1DIPC   C1B 6957  18.579  13.754   5.727 -0.1383  0.1254 -0.0241
    1DIPC   D2B 6958  18.078  13.616   5.643 -0.0646  0.0823 -0.0373
    1DIPC   D3B 6959  18.001  13.438   5.201 -0.0461  0.2938 -0.1806
    1DIPC   C4B 6960  18.137  13.085   5.098  0.1422 -0.1172 -0.2694
    1DIPC   NC3 6961  22.775   9.240   6.269  0.0914  0.0535  0.1617
    1DIPC   PO4 6962  22.511   9.436   5.869  0.0645  0.0523 -0.1014
    1DIPC   GL1 6963  22.558   9.569   5.378 -0.1791  0.0307  0.2961
    1DIPC   GL2 6964  22.465   9.260   5.228 -0.0578  0.3013 -0.2015
    1DIPC   C1A 6965  22.471   9.715   4.950 -0.1343  0.2299  0.0523
    1DIPC   D2A 6966  22.458   9.724   4.533 -0.1059 -0.1477  0.1475
    1DIPC   D3A 6967  22.005   9.801   4.456 -0.1007 -0.0550 -0.0428
    1DIPC   C4A 6968  21.747  10.009   4.202 -0.2112 -0.3168  0.2265
    1DIPC   C1B 6969  22.540   9.316   4.684 -0.1646 -0.2592  0.1791
    1DIPC   D2B 6970  22.458   9.302   4.250 -0.0659 -0.1089 -0.0999
    1DIPC   D3B 6971  22.106   9.614   4.034  0.2604  0.0911  0.0024
    1DIPC   C4B 6972  21.813   9.583   3.694 -0.0606 -0.1319  0.0499
    1DIPC   NC3 6973  11.312  22.160   5.892  0.0556 -0.1670  0.1018
    1DIPC   PO4 6974  11.320  22.519   6.197  0.0667  0.0990 -0.2187
    1DIPC   GL1 6975  11.338  22.617   5.645 -0.1546 -0.1772 -0.1694
    1DIPC   GL2 6976  11.231  22.382   5.416  0.2275  0.2459 -0.0521
    1DIPC   C1A 6977  11.492  22.890   5.335  0.0771  0.1307 -0.2752
    1DIPC   D2A 6978  11.905  23.238   5.397  0.4496 -0.1306 -0.1467
    1DIPC   D3A 6979  11.876  23.590   5.223 -0.0286 -0.3767  0.4886
    1DIPC   C4A 6980  12.257  23.651   4.809 -0.1614  0.3015 -0.1382
    1DIPC   C1B 6981  11.030  21.953   5.401  0.0814 -0.1389  0.0202
    1DIPC   D2B 6982  11.210  21.581   5.323 -0.0974 -0.3875 -0.2337
    1DIPC   D3B 6983  10.789  21.597   5.067  0.0980 -0.0604 -0.1825
    1DIPC   C4B 6984  10.642  22.003   4.979  0.0209  0.0225 -0.3146
    1DIPC   NC3 6985   9.705  27.277   6.584  0.0980  0.0242 -0.4848
    1DIPC   PO4 6986   9.364  27.631   6.552  0.2689 -0.1649 -0.0220
    1DIPC   GL1 6987   9.279  27.819   6.237  0.1059 -0.2994  0.3377
    1DIPC   GL2 6988   9.160  28.148   6.279  0.0525 -0.0135 -0.2579
    1DIPC   C1A 6989   8.771  27.833   6.070  0.1758 -0.1209  0.0311
    1DIPC   D2A 6990   8.359  27.971   5.839  0.0247  0.2162  0.0702
    1DIPC   D3A 6991   8.423  27.581   5.529 -0.4013  0.1956 -0.1162
    1DIPC   C4A 6992   8.623  27.347   5.230 -0.0629 -0.0757 -0.1761
    1DIPC   C1B 6993   9.102  28.123   5.826  0.0065  0.0570 -0.0691
    1DIPC   D2B 6994   9.345  28.123   5.522 -0.0440 -0.0527  0.2078
    1DIPC   D3B 6995   9.159  28.064   5.074 -0.0906 -0.2488  0.0054
    1DIPC   C4B 6996   8.970  27.720   5.070  0.6114 -0.0800  0.1403
    1DIPC   NC3 6997   6.040   7.145   6.680  0.2616  0.1765 -0.1024
    1DIPC   PO4 6998   5.736   7.603   6.709 -0.1216  0.2159 -0.1300
    1DIPC   GL1 6999   5.989   7.731   6.392  0.0265 -0.3311  0.0994
    1DIPC   GL2 7000   6.285   7.771   6.338  0.2014 -0.0267  0.1827
    1DIPC   C1A 7001   5.995   7.630   6.008  0.0371 -0.0608 -0.2449
    1DIPC   D2A 7002   5.573   7.350   5.920 -0.2373 -0.1805 -0.4365
    1DIPC   D3A 7003   5.692   7.259   5.522  0.3937 -0.2880  0.0988
    1DIPC   C4A 7004   5.730   6.839   5.392 -0.1392  0.1799  0.1291
    1DIPC   C1B 7005   6.372   7.334   6.088 -0.0740  0.1585 -0.1634
    1DIPC   D2B 7006   6.407   6.870   6.244  0.2243 -0.0964  0.2935
    1DIPC   D3B 7007   6.228   6.748   5.867  0.0289  0.2009 -0.1760
    1DIPC   C4B 7008   6.034   7.051   5.806 -0.2748  0.2582 -0.1126
    1DIPC   NC3 7009   1.997  10.283   7.420  0.0727  0.1410  0.1775
    1DIPC   PO4 7010   1.906  10.101   6.986 -0.1151  0.0273 -0.0792
    1DIPC   GL1 7011   1.834   9.864   6.664 -0.1494  0.0782  0.0774
    1DIPC   GL2 7012   1.501  10.031   6.577 -0.0576 -0.4122  0.0721
    1DIPC   C1A 7013   1.968   9.894   6.254 -0.0373 -0.1371  0.0159
    1DIPC   D2A 7014   1.838   9.968   5.843  0.1783 -0.2750  0.2203
    1DIPC   D3A 7015   1.694   9.815   5.356 -0.0996 -0.1792 -0.3282
    1DIPC   C4A 7016   1.490  10.065   5.188 -0.1616 -0.2279  0.0583
    1DIPC   C1B 7017   1.607  10.219   6.256 -0.0849 -0.2046  0.1835
    1DIPC   D2B 7018   1.480  10.524   5.994  0.1406 -0.0790 -0.3545
    1DIPC   D3B 7019   1.379  10.163   5.689 -0.1011  0.2685  0.0362
    1DIPC   C4B 7020   1.064  10.192   5.337  0.3160 -0.0105 -0.2574
    1DIPC   NC3 7021  24.557   5.829   6.732 -0.2881  0.3679 -0.1248
    1DIPC   PO4 7022  24.176   5.791   6.671  0.1280 -0.0657 -0.0506
    1DIPC   GL1 7023  24.011   5.845   6.232 -0.1632 -0.0470  0.1302
    1DIPC   GL2 7024  23.772   5.835   6.031 -0.0642 -0.2837  0.1420
    1DIPC   C1A 7025  24.212   6.061   5.835  0.1590 -0.0888  0.0107
    1DIPC   D2A 7026  24.398   5.956   5.487 -0.0325  0.0647  0.2157
    1DIPC   D3A 7027  24.222   6.047   5.029  0.0590 -0.2969  0.0808
    1DIPC   C4A 7028  24.277   5.677   4.861 -0.0011 -0.0215 -0.2160
    1DIPC   C1B 7029  24.148   5.537   5.893 -0.1174  0.0823  0.1680
    1DIPC   D2B 7030  24.549   5.377   5.718 -0.1228 -0.2176  0.3846
    1DIPC   D3B 7031  24.934   5.669   5.585 -0.0381 -0.1625  0.3503
    1DIPC   C4B 7032  24.883   6.063   5.442  0.0746  0.0633 -0.1358
    1DIPC   NC3 7033  11.317   6.710   6.707 -0.2256  0.1601 -0.0408
    1DIPC   PO4 7034  10.931   6.715   6.632  0.3393  0.0132 -0.1599
    1DIPC   GL1 7035  10.903   6.643   6.184  0.1315  0.2658  0.1577
    1DIPC   GL2 7036  11.192   6.736   6.028 -0.3558 -0.0511  0.1314
    1DIPC   C1A 7037  10.627   6.582   5.832  0.2756 -0.1922 -0.2406
    1DIPC   D2A 7038  10.513   6.411   5.508  0.0884 -0.1862 -0.2371
    1DIPC   D3A 7039  10.527   6.407   5.108  0.0570  0.0715 -0.0087
    1DIPC   C4A 7040  10.947   6.576   5.068 -0.1535  0.1697  0.0883
    1DIPC   C1B 7041  10.965   7.092   5.919 -0.0936 -0.2738  0.0073
    1DIPC   D2B 7042  10.675   7.208   5.657 -0.0507  0.2252  0.1310
    1DIPC   D3B 7043  10.735   6.961   5.343 -0.1018  0.1114 -0.3940
    1DIPC   C4B 7044  11.053   6.512   5.595 -0.2065 -0.1508  0.2647
    1DIPC   NC3 7045  29.551   6.123   6.817  0.0480  0.2090  0.1362
    1DIPC   PO4 7046  29.273   5.972   6.438 -0.0865 -0.0395  0.2510
    1DIPC   GL1 7047  28.947   5.843   6.124 -0.0327 -0.0565  0.0595
    1DIPC   GL2 7048  28.913   6.071   5.902 -0.2600 -0.1142 -0.3228
    1DIPC   C1A 7049  28.676   5.617   5.974 -0.0572  0.4366 -0.1000
    1DIPC   D2A 7050  28.273   5.474   6.143  0.0043 -0.0982 -0.1357
    1DIPC   D3A 7051  28.351   5.096   5.975  0.1299 -0.0825 -0.0050
    1DIPC   C4A 7052  28.589   5.232   5.588  0.0220 -0.1808  0.2971
    1DIPC   C1B 7053  29.043   6.250   5.568 -0.2033  0.0243 -0.2152
    1DIPC   D2B 7054  29.024   6.550   5.133  0.2083 -0.1246 -0.2282
    1DIPC   D3B 7055  28.905   6.200   5.042  0.2139  0.1491  0.0398
    1DIPC   C4B 7056  29.125   5.867   4.917 -0.2427 -0.2436  0.0887
    1DIPC   NC3 7057  22.132   9.149   5.686  0.2185  0.2164  0.3524
    1DIPC   PO4 7058  22.054   8.742   5.724 -0.0494 -0.2393  0.2415
    1DIPC   GL1 7059  21.834   8.815   5.327  0.1707  0.0282 -0.0463
    1DIPC   GL2 7060  21.963   9.061   5.256 -0.0772  0.2433  0.1072
    1DIPC   C1A 7061  21.469   8.970   5.099 -0.4701  0.2461  0.4326
    1DIPC   D2A 7062  21.202   8.913   4.778 -0.0499 -0.1550 -0.1116
    1DIPC   D3A 7063  21.402   8.896   4.300  0.1763  0.1777 -0.3642
    1DIPC   C4A 7064  21.614   8.616   4.450 -0.1725 -0.0819 -0.0242
    1DIPC   C1B 7065  21.967   9.412   4.992 -0.1579  0.4350  0.2032
    1DIPC   D2B 7066  22.020   9.290   4.493 -0.0697 -0.1952 -0.2856
    1DIPC   D3B 7067  21.688   9.423   4.224  0.0108 -0.1296  0.2605
    1DIPC   C4B 7068  21.424   9.719   3.962  0.0964 -0.2263 -0.0241
    1DIPC   NC3 7069  16.185  17.791   6.122  0.2432  0.0033 -0.2666
    1DIPC   PO4 7070  16.628  17.601   6.198  0.0468 -0.0940 -0.1224
    1DIPC   GL1 7071  16.683  17.300   5.919 -0.3079 -0.1196  0.2317
    1DIPC   GL2 7072  16.393  17.205   5.737 -0.2543 -0.0488  0.1659
    1DIPC   C1A 7073  16.694  16.988   5.440 -0.1497 -0.3167  0.1377
    1DIPC   D2A 7074  16.992  16.958   5.211  0.4564 -0.0082  0.0223
    1DIPC   D3A 7075  17.354  16.685   5.152 -0.0150 -0.2508 -0.1064
    1DIPC   C4A 7076  17.768  16.595   5.278 -0.2436 -0.0338  0.0921
    1DIPC   C1B 7077  16.218  17.259   5.372 -0.2204  0.0411 -0.2240
    1DIPC   D2B 7078  16.507  17.077   5.000 -0.0939  0.1263 -0.0394
    1DIPC   D3B 7079  16.695  16.880   4.709 -0.1727 -0.1582  0.1056
    1DIPC   C4B 7080  17.006  16.562   4.831 -0.3251  0.0017 -0.1693
    1DIPC   NC3 7081  18.383  18.804   5.849 -0.1123  0.0779 -0.3528
    1DIPC   PO4 7082  18.047  18.638   5.781  0.3913  0.0682  0.0231
    1DIPC   GL1 7083  18.130  18.725   5.391  0.0493 -0.1559 -0.0575
    1DIPC   GL2 7084  17.845  18.584   5.292 -0.1153  0.0634 -0.4060
    1DIPC   C1A 7085  18.164  18.838   5.010 -0.2298  0.1917 -0.0558
    1DIPC   D2A 7086  17.939  19.109   4.639  0.0186  0.3062  0.2998
    1DIPC   D3A 7087  17.726  18.903   4.243 -0.1803  0.2668  0.2274
    1DIPC   C4A 7088  17.461  18.653   4.416 -0.0305  0.1407 -0.3396
    1DIPC   C1B 7089  17.741  18.534   4.923 -0.0021  0.0927 -0.0333
    1DIPC   D2B 7090  18.011  18.548   4.521  0.1319  0.1350  0.1166
    1DIPC   D3B 7091  17.794  18.425   4.135  0.0421  0.0214 -0.0771
    1DIPC   C4B 7092  17.862  18.035   4.027 -0.1300  0.2337 -0.1984
    1DIPC   NC3 7093   9.301   1.673   6.891 -0.1061 -0.3573 -0.2236
    1DIPC   PO4 7094   9.713   1.432   6.775 -0.1059 -0.0325 -0.3389
    1DIPC   GL1 7095   9.509   1.467   6.403  0.1067  0.0513 -0.2158
    1DIPC   GL2 7096   9.887   1.338   6.199  0.0128  0.3100 -0.3216
    1DIPC   C1A 7097   9.471   1.762   6.039 -0.0160 -0.3365 -0.0024
    1DIPC   D2A 7098   9.460   2.268   5.990  0.0061 -0.0026  0.0624
    1DIPC   D3A 7099   9.099   2.151   5.593 -0.3980 -0.0020  0.3146
    1DIPC   C4A 7100   9.148   1.848   5.133  0.0930 -0.1410 -0.0480
    1DIPC   C1B 7101   9.632   1.324   5.863 -0.1980  0.1525 -0.1769
    1DIPC   D2B 7102   9.384   1.640   5.571 -0.0600  0.0179 -0.0009
    1DIPC   D3B 7103   9.810   1.533   5.444 -0.1429  0.2141  0.0499
    1DIPC   C4B 7104  10.124   1.458   5.129  0.0938  0.2732 -0.0557
    1DIPC   NC3 7105  22.386   6.393   6.391  0.0426  0.2257 -0.2534
    1DIPC   PO4 7106  22.633   6.699   6.295 -0.2612  0.1020 -0.1077
    1DIPC   GL1 7107  22.642   6.539   5.943 -0.0192  0.1742  0.1358
    1DIPC   GL2 7108  22.624   6.258   5.947 -0.4037 -0.1553  0.1260
    1DIPC   C1A 7109  22.890   6.507   5.579  0.0420 -0.0432  0.1059
    1DIPC   D2A 7110  22.931   6.354   5.136 -0.0521  0.0852 -0.1275
    1DIPC   D3A 7111  23.298   6.034   5.012  0.0397  0.0322  0.1013
    1DIPC   C4A 7112  23.716   6.086   4.951  0.0713 -0.2813 -0.4352
    1DIPC   C1B 7113  22.465   6.022   5.658 -0.0646 -0.1084 -0.1641
    1DIPC   D2B 7114  22.291   5.734   5.371  0.4288  0.0786 -0.1303
    1DIPC   D3B 7115  22.257   5.326   5.566 -0.1487  0.1463 -0.0693
    1DIPC   C4B 7116  22.268   4.903   5.356  0.3265  0.1952  0.2103
    1DIPC   NC3 7117  15.768  12.143   7.255 -0.0470 -0.0009  0.1201
    1DIPC   PO4 7118  15.943  11.925   6.936  0.0094  0.1386 -0.1097
    1DIPC   GL1 7119  15.651  11.920   6.693  0.0769  0.0490  0.3736
    1DIPC   GL2 7120  15.571  11.645   6.465  0.0233 -0.0211  0.0385
    1DIPC   C1A 7121  15.340  12.107   6.400  0.1610 -0.2004  0.1720
    1DIPC   D2A 7122  15.141  12.048   6.048 -0.2386  0.2897  0.2778
    1DIPC   D3A 7123  14.969  12.377   5.925  0.0071 -0.4228  0.0209
    1DIPC   C4A 7124  14.952  12.810   6.096  0.2765 -0.1297 -0.0573
    1DIPC   C1B 7125  15.584  11.790   6.058 -0.1812  0.0049  0.0986
    1DIPC   D2B 7126  15.674  12.129   5.777  0.0230 -0.1458  0.0032
    1DIPC   D3B 7127  15.766  12.046   5.259  0.0990 -0.1995 -0.3187
    1DIPC   C4B 7128  15.575  11.708   5.049  0.0418 -0.1488 -0.1903
    1DIPC   NC3 7129   5.942  11.762   6.656  0.0220 -0.0414  0.2523
    1DIPC   PO4 7130   6.380  11.630   6.678  0.2712 -0.2165  0.0084
    1DIPC   GL1 7131   6.275  11.291   6.399 -0.2215  0.0248  0.2163
    1DIPC   GL2 7132   5.956  11.390   6.275 -0.1617 -0.0187  0.2254
    1DIPC   C1A 7133   6.410  11.039   6.051 -0.1766  0.0852  0.0280
    1DIPC   D2A 7134   6.411  10.853   5.655 -0.1411 -0.0300 -0.0767
    1DIPC   D3A 7135   6.365  11.170   5.240 -0.0801  0.1276 -0.1624
    1DIPC   C4A 7136   6.772  11.209   4.943 -0.1133 -0.0002  0.0637
    1DIPC   C1B 7137   5.961  11.203   5.826 -0.0709  0.2982  0.1720
    1DIPC   D2B 7138   5.579  11.189   5.479  0.0408 -0.3645  0.0024
    1DIPC   D3B 7139   5.760  10.839   5.622  0.3781 -0.0541 -0.0981
    1DIPC   C4B 7140   6.026  10.597   5.377 -0.0782  0.3886  0.0797
    1DIPC   NC3 7141  15.230  23.702   6.336 -0.3001 -0.1134 -0.1462
    1DIPC   PO4 7142  15.325  23.260   6.238 -0.2716  0.2137  0.1284
    1DIPC   GL1 7143  15.099  23.398   5.869  0.1135 -0.1054 -0.3847
    1DIPC   GL2 7144  14.737  23.416   5.892 -0.0546 -0.1699  0.0200
    1DIPC   C1A 7145  14.973  23.534   5.445  0.0426  0.1749  0.1600
    1DIPC   D2A 7146  14.855  23.414   5.069 -0.0902  0.3427  0.0544
    1DIPC   D3A 7147  14.914  23.751   4.719  0.0296 -0.2055  0.0611
    1DIPC   C4A 7148  15.115  24.077   4.427  0.1069  0.1577  0.0290
    1DIPC   C1B 7149  14.569  23.208   5.453  0.0773  0.0964 -0.1613
    1DIPC   D2B 7150  14.089  23.189   5.200  0.0808 -0.2793 -0.1111
    1DIPC   D3B 7151  14.196  22.929   4.881  0.0787 -0.3111 -0.0723
    1DIPC   C4B 7152  14.390  22.568   5.083  0.2132  0.0021 -0.1396
    1DIPC   NC3 7153  24.458  24.911   6.156  0.1539  0.0557 -0.0991
    1DIPC   PO4 7154  24.926  24.993   6.390 -0.1286  0.2241  0.1414
    1DIPC   GL1 7155  24.875  25.127   5.863 -0.1106 -0.2080 -0.1403
    1DIPC   GL2 7156  24.904  24.983   5.584 -0.1682  0.0174  0.3665
    1DIPC   C1A 7157  24.869  25.518   5.597  0.1068 -0.0065  0.1072
    1DIPC   D2A 7158  24.483  25.716   5.576  0.1541  0.1954  0.3164
    1DIPC   D3A 7159  24.365  26.153   5.362 -0.0438  0.2480 -0.0007
    1DIPC   C4A 7160  24.346  25.960   4.910 -0.1504 -0.2705  0.0177
    1DIPC   C1B 7161  24.572  25.081   5.328 -0.2918 -0.0154 -0.1525
    1DIPC   D2B 7162  24.304  25.472   5.142  0.0887 -0.1240 -0.0462
    1DIPC   D3B 7163  24.655  25.464   4.972 -0.4673  0.0139 -0.1826
    1DIPC   C4B 7164  24.624  25.407   4.479 -0.2033  0.3526 -0.4077
    1DIPC   NC3 7165  15.283  19.803   6.541 -0.0695  0.0839  0.0701
    1DIPC   PO4 7166  15.076  20.016   6.114 -0.0707 -0.0552  0.4048
    1DIPC   GL1 7167  15.242  20.180   5.712 -0.1323 -0.1085 -0.1255
    1DIPC   GL2 7168  15.588  20.269   5.686  0.1716  0.2250  0.0773
    1DIPC   C1A 7169  15.263  20.584   5.505  0.2116  0.2198  0.0577
    1DIPC   D2A 7170  15.165  21.051   5.381  0.0138 -0.0434 -0.0879
    1DIPC   D3A 7171  15.139  20.991   4.904 -0.2374  0.1238 -0.0542
    1DIPC   C4A 7172  15.342  21.267   4.558 -0.1357 -0.0319 -0.0108
    1DIPC   C1B 7173  15.788  20.512   5.511  0.0114 -0.0546  0.1474
    1DIPC   D2B 7174  15.601  20.902   5.398  0.0462  0.1905 -0.0468
    1DIPC   D3B 7175  15.645  20.470   5.051 -0.1912 -0.2445 -0.0249
    1DIPC   C4B 7176  16.047  20.282   4.870  0.0381 -0.4731  0.0709
    1DIPC   NC3 7177  19.029  20.142   5.947  0.1390  0.0654 -0.0626
    1DIPC   PO4 7178  19.257  19.839   5.692 -0.1321 -0.0971 -0.2393
    1DIPC   GL1 7179  19.042  20.094   5.320  0.3665 -0.2404 -0.0152
    1DIPC   GL2 7180  18.748  20.111   5.476  0.1314 -0.1564 -0.4018
    1DIPC   C1A 7181  18.808  20.352   4.972  0.0600  0.1899 -0.0389
    1DIPC   D2A 7182  18.447  20.529   4.827  0.0799  0.0639  0.1930
    1DIPC   D3A 7183  18.605  20.463   4.407  0.0996  0.2059 -0.1174
    1DIPC   C4A 7184  18.973  20.578   4.565 -0.0363 -0.1616  0.1497
    1DIPC   C1B 7185  18.381  20.150   5.244  0.1163  0.0108  0.0624
    1DIPC   D2B 7186  18.098  19.790   5.091 -0.2172 -0.2857 -0.3217
    1DIPC   D3B 7187  18.133  19.355   5.099 -0.3625 -0.1289  0.0699
    1DIPC   C4B 7188  17.898  19.175   5.320 -0.2791 -0.0938  0.1169
    1DIPC   NC3 7189  16.672  19.124   5.845 -0.4302  0.2058 -0.1326
    1DIPC   PO4 7190  16.557  18.715   5.834  0.0708  0.3395 -0.2014
    1DIPC   GL1 7191  16.721  18.469   5.451 -0.0622  0.0353 -0.0284
    1DIPC   GL2 7192  16.911  18.585   5.146 -0.3257 -0.1208 -0.1439
    1DIPC   C1A 7193  16.611  18.024   5.201 -0.2213  0.1892 -0.0569
    1DIPC   D2A 7194  16.298  17.725   5.109 -0.0581  0.0596 -0.2541
    1DIPC   D3A 7195  16.511  17.573   4.709  0.1348 -0.3005  0.0215
    1DIPC   C4A 7196  16.918  17.638   4.577 -0.1560  0.0279  0.0915
    1DIPC   C1B 7197  17.208  18.341   4.857  0.1162  0.1336 -0.1404
    1DIPC   D2B 7198  17.526  18.081   5.133 -0.0455  0.2932 -0.1146
    1DIPC   D3B 7199  17.656  17.899   4.779 -0.3123  0.1019 -0.2203
    1DIPC   C4B 7200  17.433  18.148   4.478 -0.0108  0.0858  0.0323
    1DIPC   NC3 7201  23.731  17.223   5.972 -0.1009  0.3971 -0.1759
    1DIPC   PO4 7202  23.455  17.491   5.824  0.0753  0.1242 -0.3246
    1DIPC   GL1 7203  23.247  17.367   5.495 -0.0251  0.1422 -0.3671
    1DIPC   GL2 7204  23.554  17.270   5.238  0.0262 -0.1764 -0.2267
    1DIPC   C1A 7205  23.133  17.066   5.082 -0.1643  0.1119 -0.0792
    1DIPC   D2A 7206  22.748  16.869   4.811 -0.1384  0.0741  0.1600
    1DIPC   D3A 7207  22.803  16.819   4.308 -0.2241 -0.2304 -0.0611
    1DIPC   C4A 7208  23.011  17.156   4.132 -0.1312 -0.1733  0.1644
    1DIPC   C1B 7209  23.635  17.199   4.854 -0.0285 -0.0170 -0.3107
    1DIPC   D2B 7210  23.588  17.267   4.500 -0.2744 -0.2666 -0.4518
    1DIPC   D3B 7211  23.777  17.439   4.204  0.2061  0.1342 -0.0888
    1DIPC   C4B 7212  24.080  17.672   4.274  0.1236 -0.2909 -0.3841
    1DIPC   NC3 7213   3.040   3.231   7.309 -0.3413  0.0943 -0.0947
    1DIPC   PO4 7214   2.933   2.850   6.886 -0.1778  0.3001  0.1886
    1DIPC   GL1 7215   2.849   2.958   6.453 -0.0365  0.0293  0.2040
    1DIPC   GL2 7216   3.027   3.197   6.232  0.1358  0.2762  0.3351
    1DIPC   C1A 7217   2.873   2.845   5.893 -0.2996 -0.1531 -0.0140
    1DIPC   D2A 7218   2.823   2.482   5.658 -0.1742 -0.2265 -0.0195
    1DIPC   D3A 7219   2.873   2.464   5.161  0.0227  0.1411  0.0611
    1DIPC   C4A 7220   3.219   2.672   5.018 -0.0424 -0.5079 -0.0133
    1DIPC   C1B 7221   2.980   3.260   5.708 -0.3240 -0.2374 -0.2772
    1DIPC   D2B 7222   2.910   2.962   5.380  0.1137 -0.0959 -0.2987
    1DIPC   D3B 7223   2.626   3.144   5.096  0.1574  0.0634 -0.0382
    1DIPC   C4B 7224   2.262   3.179   5.101  0.0941 -0.1793 -0.0299
    1DIPC   NC3 7225  21.554  27.403   6.826 -0.0710 -0.1876  0.1009
    1DIPC   PO4 7226  21.111  27.614   6.687 -0.0743  0.0359  0.2881
    1DIPC   GL1 7227  20.921  27.939   6.442  0.1895 -0.1803  0.2872
    1DIPC   GL2 7228  20.583  27.900   6.350 -0.1078 -0.4530  0.0893
    1DIPC   C1A 7229  20.970  28.016   5.979  0.0849  0.0128 -0.1725
    1DIPC   D2A 7230  20.993  27.786   5.642 -0.0929  0.1376  0.2583
    1DIPC   D3A 7231  21.171  27.500   5.971 -0.1221 -0.1710  0.2000
    1DIPC   C4A 7232  21.595  27.351   5.879 -0.0582 -0.0341 -0.1451
    1DIPC   C1B 7233  20.567  27.594   5.895 -0.1164 -0.0888  0.0208
    1DIPC   D2B 7234  20.803  27.312   5.576 -0.1449  0.0731  0.1154
    1DIPC   D3B 7235  21.139  27.557   5.255  0.1488 -0.1030  0.0395
    1DIPC   C4B 7236  21.191  28.022   5.101  0.0356  0.1791  0.3300
    1DIPC   NC3 7237  25.600   2.021   6.970  0.0630  0.0164 -0.1325
    1DIPC   PO4 7238  25.805   2.468   7.096 -0.1368  0.0053  0.1442
    1DIPC   GL1 7239  25.780   2.690   6.699 -0.0674  0.1529  0.1162
    1DIPC   GL2 7240  25.776   3.047   6.571 -0.1770  0.2358 -0.2452
    1DIPC   C1A 7241  25.725   2.480   6.321  0.1694  0.2076  0.1799
    1DIPC   D2A 7242  25.749   2.224   5.993  0.0743  0.3012 -0.1328
    1DIPC   D3A 7243  26.084   2.043   5.857  0.1039 -0.0603 -0.0267
    1DIPC   C4A 7244  26.088   1.568   5.935  0.2056  0.0277  0.0383
    1DIPC   C1B 7245  25.993   2.859   6.234  0.1559 -0.1757 -0.0234
    1DIPC   D2B 7246  26.074   2.612   5.783 -0.0127  0.2935 -0.1183
    1DIPC   D3B 7247  26.470   2.645   5.748 -0.2469 -0.0668 -0.0659
    1DIPC   C4B 7248  26.449   2.794   5.387 -0.0781  0.0049  0.1025
    1DIPC   NC3 7249   6.741  14.970   6.928 -0.1757 -0.1838 -0.0371
    1DIPC   PO4 7250   6.453  14.917   6.565  0.2081 -0.1455  0.1320
    1DIPC   GL1 7251   6.566  14.712   6.116 -0.0766  0.1518 -0.0203
    1DIPC   GL2 7252   6.699  14.443   6.071  0.0925 -0.0954 -0.2341
    1DIPC   C1A 7253   6.486  14.746   5.672 -0.0939  0.0379  0.2620
    1DIPC   D2A 7254   6.244  14.803   5.272 -0.2329  0.1961 -0.0510
    1DIPC   D3A 7255   5.868  14.568   5.245 -0.1704  0.2432 -0.0077
    1DIPC   C4A 7256   5.857  14.221   4.957  0.0077  0.1344  0.3279
    1DIPC   C1B 7257   6.842  14.372   5.692  0.1492 -0.0583 -0.0556
    1DIPC   D2B 7258   6.843  14.261   5.388  0.0035 -0.2128  0.0201
    1DIPC   D3B 7259   6.749  14.098   4.921 -0.0644  0.1321  0.0885
    1DIPC   C4B 7260   6.330  13.927   4.785 -0.2654 -0.3047  0.0694
    1DIPC   NC3 7261   8.031   7.238   7.598  0.2313 -0.3903 -0.0130
    1DIPC   PO4 7262   8.010   7.519   7.195 -0.0758  0.0381  0.2214
    1DIPC   GL1 7263   8.128   7.403   6.796  0.0142 -0.1299 -0.1763
    1DIPC   GL2 7264   8.037   7.130   6.626 -0.2214  0.2360  0.0836
    1DIPC   C1A 7265   8.128   7.577   6.354  0.2926  0.0705  0.1444
    1DIPC   D2A 7266   8.355   7.433   5.980 -0.3028 -0.2716 -0.1859
    1DIPC   D3A 7267   8.424   7.775   5.610 -0.0481 -0.2382  0.1014
    1DIPC   C4A 7268   8.258   8.012   5.310  0.3423 -0.0774  0.0506
    1DIPC   C1B 7269   8.103   7.108   6.219  0.0043 -0.0510  0.1076
    1DIPC   D2B 7270   8.194   6.979   5.724  0.1981  0.0661  0.4706
    1DIPC   D3B 7271   8.404   7.276   5.434  0.1232  0.1158 -0.3073
    1DIPC   C4B 7272   8.413   7.053   5.000 -0.0090  0.1431  0.1087
    1DIPC   NC3 7273   8.114   3.742   6.964 -0.0254 -0.2298  0.1094
    1DIPC   PO4 7274   7.633   3.659   6.815 -0.0801  0.2629  0.0725
    1DIPC   GL1 7275   7.791   3.714   6.374  0.0088 -0.1839  0.1186
    1DIPC   GL2 7276   7.666   3.945   6.196  0.1023 -0.2358 -0.1466
    1DIPC   C1A 7277   7.849   3.334   6.027  0.1056  0.4058 -0.0874
    1DIPC   D2A 7278   8.086   3.094   5.697  0.0694  0.3583  0.3516
    1DIPC   D3A 7279   7.973   3.315   5.271  0.1142  0.2196 -0.2092
    1DIPC   C4A 7280   8.001   3.003   4.948  0.2523  0.2002 -0.1083
    1DIPC   C1B 7281   7.595   3.763   5.847  0.1018 -0.1070  0.1933
    1DIPC   D2B 7282   7.584   3.334   5.581 -0.0410  0.1016 -0.2517
    1DIPC   D3B 7283   7.482   3.490   5.192  0.0887  0.0525 -0.1552
    1DIPC   C4B 7284   7.041   3.774   5.030  0.1982 -0.0663 -0.0474
    1DIPC   NC3 7285  12.259  21.708   6.117 -0.0404 -0.0039 -0.1553
    1DIPC   PO4 7286  12.748  21.961   6.096  0.1038 -0.1845  0.1442
    1DIPC   GL1 7287  12.755  22.009   5.570  0.2792 -0.0597 -0.0373
    1DIPC   GL2 7288  12.926  21.782   5.412  0.0070 -0.2800  0.3957
    1DIPC   C1A 7289  12.814  22.423   5.242  0.0950  0.2089  0.0609
    1DIPC   D2A 7290  13.011  22.476   4.853 -0.2206  0.0909 -0.0602
    1DIPC   D3A 7291  12.587  22.551   4.687  0.0210 -0.0703 -0.1951
    1DIPC   C4A 7292  12.505  22.433   4.211 -0.0236  0.3155 -0.1588
    1DIPC   C1B 7293  12.524  21.876   5.113 -0.0524 -0.1011 -0.1239
    1DIPC   D2B 7294  12.454  22.039   4.815  0.0374 -0.0503  0.2222
    1DIPC   D3B 7295  12.925  22.060   4.608  0.1526  0.0811  0.0623
    1DIPC   C4B 7296  12.965  22.305   4.338  0.0742 -0.1332  0.0249
    1DIPC   NC3 7297   6.504  13.102   6.912  0.0539 -0.3898  0.1890
    1DIPC   PO4 7298   6.958  13.030   6.762  0.2397  0.1218  0.1872
    1DIPC   GL1 7299   7.059  13.077   6.310 -0.0717 -0.0407  0.0098
    1DIPC   GL2 7300   7.134  13.364   6.116  0.3176 -0.0734 -0.1853
    1DIPC   C1A 7301   6.878  13.026   5.903  0.1929 -0.0884 -0.1311
    1DIPC   D2A 7302   6.790  13.368   5.544 -0.0926  0.0132  0.0396
    1DIPC   D3A 7303   6.903  12.998   5.336  0.0944 -0.0265  0.1946
    1DIPC   C4A 7304   7.270  13.176   4.966  0.2667  0.0512 -0.0922
    1DIPC   C1B 7305   6.769  13.508   6.036 -0.1923  0.0628  0.2276
    1DIPC   D2B 7306   6.320  13.528   6.030 -0.0195 -0.2301 -0.3569
    1DIPC   D3B 7307   6.295  13.454   5.658 -0.2273 -0.1940 -0.1541
    1DIPC   C4B 7308   6.115  13.718   5.339 -0.1448 -0.1906 -0.1514
    1DIPC   NC3 7309  25.906   1.603   7.154 -0.0772 -0.1047 -0.3471
    1DIPC   PO4 7310  25.514   1.451   7.019  0.1256 -0.0525  0.1463
    1DIPC   GL1 7311  25.704   1.484   6.646  0.1352  0.0110 -0.1361
    1DIPC   GL2 7312  25.864   1.739   6.692  0.0034  0.0492  0.2049
    1DIPC   C1A 7313  25.845   1.210   6.249  0.1210 -0.1444 -0.0548
    1DIPC   D2A 7314  25.714   1.068   5.846 -0.1338 -0.0297 -0.4093
    1DIPC   D3A 7315  25.444   0.957   5.554  0.0266 -0.4229  0.2396
    1DIPC   C4A 7316  25.298   1.352   5.321  0.0235  0.1596  0.3960
    1DIPC   C1B 7317  25.976   2.027   6.436 -0.0809 -0.1257  0.1968
    1DIPC   D2B 7318  26.244   2.363   6.266  0.0612  0.0050 -0.0623
    1DIPC   D3B 7319  26.712   2.578   6.296  0.0552  0.0046 -0.0716
    1DIPC   C4B 7320  26.899   2.753   5.990  0.2915 -0.0648  0.6056
    1DIPC   NC3 7321   9.943   6.796   7.027  0.2185  0.0647 -0.1731
    1DIPC   PO4 7322  10.219   7.182   7.069  0.0652 -0.3086  0.3701
    1DIPC   GL1 7323   9.977   7.187   6.664 -0.0186  0.0280  0.1080
    1DIPC   GL2 7324   9.636   7.352   6.550  0.1254 -0.2584  0.0443
    1DIPC   C1A 7325  10.111   7.298   6.195  0.0246  0.1132 -0.3446
    1DIPC   D2A 7326  10.394   7.461   5.942 -0.2520 -0.1286  0.1080
    1DIPC   D3A 7327  10.089   7.439   5.538 -0.2972  0.2461  0.0664
    1DIPC   C4A 7328  10.345   7.297   5.164 -0.3171 -0.0570  0.2310
    1DIPC   C1B 7329   9.642   7.245   6.077  0.0985 -0.1485  0.2906
    1DIPC   D2B 7330   9.772   6.922   5.608  0.1252  0.3602 -0.2600
    1DIPC   D3B 7331   9.697   7.207   5.409 -0.1476  0.1777  0.1802
    1DIPC   C4B 7332   9.780   7.040   4.995  0.1257  0.3495  0.2691
    1DIPC   NC3 7333  14.198   8.988   6.751 -0.0264  0.0335 -0.0017
    1DIPC   PO4 7334  13.935   8.672   6.727  0.3752 -0.2703 -0.0385
    1DIPC   GL1 7335  13.885   8.706   6.252  0.1205  0.0335 -0.1276
    1DIPC   GL2 7336  14.145   8.516   6.064  0.1624  0.1030 -0.0031
    1DIPC   C1A 7337  13.672   8.541   5.901 -0.1064 -0.0710 -0.2437
    1DIPC   D2A 7338  13.391   8.659   5.516 -0.1672 -0.0523 -0.1717
    1DIPC   D3A 7339  13.629   8.731   5.163  0.0194  0.0319  0.2560
    1DIPC   C4A 7340  13.803   9.139   5.100 -0.3410  0.0274  0.1037
    1DIPC   C1B 7341  14.265   8.244   5.567  0.0034 -0.0185  0.0811
    1DIPC   D2B 7342  14.197   8.118   5.119 -0.0718 -0.2388 -0.1418
    1DIPC   D3B 7343  14.470   8.219   4.743 -0.0931 -0.4610  0.2138
    1DIPC   C4B 7344  14.443   8.171   4.309 -0.1375  0.1038 -0.1660
    1DIPC   NC3 7345  14.035   0.117   6.868  0.1007  0.2925  0.0190
    1DIPC   PO4 7346  13.737   0.212   6.453 -0.1488 -0.4811 -0.0150
    1DIPC   GL1 7347  13.541   0.199   6.117  0.1693  0.3043  0.0758
    1DIPC   GL2 7348  13.304   0.293   6.109  0.2533 -0.1807 -0.0104
    1DIPC   C1A 7349  13.564   0.060   5.753  0.1354  0.1155  0.0655
    1DIPC   D2A 7350  13.790  30.153   5.504  0.0942  0.0445 -0.1077
    1DIPC   D3A 7351  13.798  30.108   5.052  0.3458 -0.1118  0.0403
    1DIPC   C4A 7352  14.009   0.186   5.033  0.3627 -0.2441 -0.1228
    1DIPC   C1B 7353  13.163  30.212   5.959  0.2487 -0.1373 -0.2387
    1DIPC   D2B 7354  13.084  29.786   6.058  0.2161  0.0040  0.0248
    1DIPC   D3B 7355  13.464  29.847   5.845 -0.1897 -0.0120  0.0066
    1DIPC   C4B 7356  13.760  30.034   6.124  0.2415  0.1148  0.2156
    1DIPC   NC3 7357  23.789  29.842   6.859 -0.1932 -0.0346  0.1999
    1DIPC   PO4 7358  23.878  29.398   6.707 -0.1075 -0.0536 -0.1752
    1DIPC   GL1 7359  24.043  29.705   6.360 -0.1903  0.1355  0.2011
    1DIPC   GL2 7360  24.149  29.980   6.495 -0.1104  0.1918 -0.0748
    1DIPC   C1A 7361  24.068  29.681   5.920 -0.0716  0.0792 -0.0802
    1DIPC   D2A 7362  24.038  29.747   5.510  0.0539  0.0298 -0.0605
    1DIPC   D3A 7363  24.054  30.074   5.574  0.0955 -0.1923 -0.1415
    1DIPC   C4A 7364  24.143   0.027   5.278 -0.0302  0.2680  0.0943
    1DIPC   C1B 7365  24.467  29.904   6.217 -0.3569  0.3633 -0.0479
    1DIPC   D2B 7366  24.562  29.922   5.775 -0.2442  0.0639  0.0320
    1DIPC   D3B 7367  24.720  29.700   5.376 -0.0600 -0.0346 -0.3722
    1DIPC   C4B 7368  24.500  29.474   5.142  0.0216 -0.2516 -0.0428
    1DIPC   NC3 7369  15.084  26.955   6.722  0.0322  0.1282  0.1502
    1DIPC   PO4 7370  15.321  26.992   6.318  0.0612  0.0535  0.1174
    1DIPC   GL1 7371  15.251  26.822   5.877  0.1458 -0.2202  0.1142
    1DIPC   GL2 7372  15.575  26.674   5.753 -0.0930  0.0975  0.5168
    1DIPC   C1A 7373  15.012  26.626   5.532 -0.0186 -0.0231  0.2583
    1DIPC   D2A 7374  14.612  26.624   5.234 -0.0345  0.2087  0.1767
    1DIPC   D3A 7375  14.559  26.951   4.968  0.2083  0.1886  0.0191
    1DIPC   C4A 7376  14.907  27.264   4.807 -0.1118 -0.0366 -0.0112
    1DIPC   C1B 7377  15.426  26.941   5.407 -0.0975 -0.1666 -0.1857
    1DIPC   D2B 7378  15.308  27.349   5.584  0.2074 -0.0123  0.2425
    1DIPC   D3B 7379  15.718  27.592   5.395  0.2527  0.1519  0.0273
    1DIPC   C4B 7380  15.871  27.432   5.063  0.0276  0.0297 -0.1629
    1DIPC   NC3 7381  13.381  14.432   7.053  0.1516  0.2706 -0.0926
    1DIPC   PO4 7382  13.041  14.785   7.065  0.0318 -0.1207 -0.0910
    1DIPC   GL1 7383  13.147  14.908   6.651  0.3608  0.1857  0.0179
    1DIPC   GL2 7384  13.316  15.130   6.468 -0.1854 -0.2773  0.0531
    1DIPC   C1A 7385  13.164  14.751   6.198  0.1820  0.0205  0.1775
    1DIPC   D2A 7386  13.510  14.898   5.874 -0.0304  0.0123 -0.1976
    1DIPC   D3A 7387  13.642  14.548   5.796  0.2199 -0.0582  0.4131
    1DIPC   C4A 7388  13.911  14.505   5.345 -0.1504 -0.2620  0.0041
    1DIPC   C1B 7389  13.259  15.273   6.046  0.0226  0.2483  0.2362
    1DIPC   D2B 7390  13.037  15.098   5.856 -0.1193  0.1324  0.1208
    1DIPC   D3B 7391  13.034  14.627   5.625  0.4287  0.1096 -0.0031
    1DIPC   C4B 7392  12.834  14.719   5.257 -0.4401  0.2213  0.1025
    1DIPC   NC3 7393  22.284  29.084   6.736 -0.1764  0.2508 -0.1066
    1DIPC   PO4 7394  22.544  29.439   6.516 -0.0110  0.2641 -0.2091
    1DIPC   GL1 7395  22.641  29.068   6.175  0.0669  0.0323  0.2297
    1DIPC   GL2 7396  22.497  28.876   6.115 -0.3496 -0.2050  0.3808
    1DIPC   C1A 7397  22.789  29.221   5.741 -0.0838  0.2838  0.1042
    1DIPC   D2A 7398  22.828  29.394   5.425 -0.0800 -0.1144 -0.3489
    1DIPC   D3A 7399  22.734  29.282   5.027  0.0844  0.2567  0.0200
    1DIPC   C4A 7400  22.340  29.222   4.708 -0.1281  0.0684  0.0126
    1DIPC   C1B 7401  22.445  28.747   5.767 -0.1596 -0.1683  0.0833
    1DIPC   D2B 7402  22.451  28.470   5.408  0.1503 -0.1099 -0.1626
    1DIPC   D3B 7403  22.593  28.521   5.026 -0.0791  0.1564 -0.0864
    1DIPC   C4B 7404  22.663  28.796   4.693  0.1065 -0.0170 -0.1852
    1DIPC   NC3 7405  26.040   3.353   6.813  0.1756 -0.1528  0.2207
    1DIPC   PO4 7406  25.673   3.401   6.943 -0.1542 -0.0717  0.2797
    1DIPC   GL1 7407  25.670   3.718   6.632 -0.1238 -0.3225  0.2083
    1DIPC   GL2 7408  25.708   3.566   6.311 -0.0217 -0.0078  0.3348
    1DIPC   C1A 7409  26.057   3.898   6.414  0.2542 -0.1698 -0.1471
    1DIPC   D2A 7410  26.199   4.004   6.070  0.1486 -0.3650 -0.2025
    1DIPC   D3A 7411  26.430   3.752   5.961 -0.0095  0.1400  0.3840
    1DIPC   C4A 7412  26.484   3.575   5.515  0.1222 -0.0732 -0.0694
    1DIPC   C1B 7413  26.073   3.337   6.163 -0.1121 -0.3295  0.1353
    1DIPC   D2B 7414  26.233   3.146   5.872 -0.0738 -0.0193 -0.0419
    1DIPC   D3B 7415  26.122   3.179   5.491  0.0899 -0.1329 -0.0047
    1DIPC   C4B 7416  26.319   3.191   5.100 -0.3674  0.1086  0.0119
    1DIPC   NC3 7417  15.613  21.202   6.226  0.2800 -0.1707  0.2547
    1DIPC   PO4 7418  15.602  21.349   5.816  0.1606 -0.0702  0.2036
    1DIPC   GL1 7419  15.441  21.426   5.438 -0.0727 -0.1016  0.1427
    1DIPC   GL2 7420  15.346  21.769   5.619 -0.2608 -0.2047  0.0464
    1DIPC   C1A 7421  15.515  21.267   5.007 -0.0689  0.1149  0.1437
    1DIPC   D2A 7422  15.639  20.913   4.894  0.0016 -0.2697 -0.2772
    1DIPC   D3A 7423  15.760  20.693   4.586 -0.2247  0.1357  0.0607
    1DIPC   C4A 7424  15.910  20.726   4.080 -0.1640 -0.1632 -0.0277
    1DIPC   C1B 7425  15.678  21.840   5.278 -0.1302  0.0497  0.0457
    1DIPC   D2B 7426  16.008  21.665   4.995  0.3365  0.2534  0.1795
    1DIPC   D3B 7427  15.668  21.760   4.737 -0.0634  0.2667 -0.0321
    1DIPC   C4B 7428  15.528  22.146   4.912 -0.2678 -0.0151 -0.3761
    1DIPC   NC3 7429  20.660   0.278   6.710  0.0720 -0.2230 -0.2246
    1DIPC   PO4 7430  20.758   0.599   6.433 -0.1256 -0.1594 -0.0537
    1DIPC   GL1 7431  20.823   0.533   5.918  0.0979  0.1244  0.1669
    1DIPC   GL2 7432  21.137   0.627   5.979  0.0664  0.0168  0.2209
    1DIPC   C1A 7433  20.912   0.402   5.462  0.0030 -0.1275  0.1493
    1DIPC   D2A 7434  21.096   0.194   5.029 -0.2417 -0.1439  0.3018
    1DIPC   D3A 7435  20.881   0.019   4.719  0.0526 -0.2663 -0.2752
    1DIPC   C4A 7436  20.466   0.052   4.618  0.2285 -0.0100 -0.0172
    1DIPC   C1B 7437  21.236   0.863   5.549  0.1708  0.2986  0.4737
    1DIPC   D2B 7438  21.270   0.821   5.057 -0.0291 -0.0690 -0.1908
    1DIPC   D3B 7439  20.869   0.756   4.892 -0.0948  0.1459 -0.1744
    1DIPC   C4B 7440  20.696   0.484   4.520 -0.3415 -0.0530  0.1059
    1DIPC   NC3 7441  16.758  24.381   6.240  0.0512  0.0678  0.2169
    1DIPC   PO4 7442  17.229  24.439   6.135  0.1817 -0.2692 -0.0184
    1DIPC   GL1 7443  17.153  24.523   5.724  0.0035  0.1463 -0.0516
    1DIPC   GL2 7444  17.423  24.497   5.635  0.0031  0.0846  0.5506
    1DIPC   C1A 7445  17.154  24.792   5.295 -0.1814  0.0001 -0.1568
    1DIPC   D2A 7446  17.081  25.014   4.898  0.3113 -0.1703  0.0448
    1DIPC   D3A 7447  16.799  24.967   4.499 -0.1094 -0.2774  0.1469
    1DIPC   C4A 7448  16.390  24.846   4.602 -0.0810  0.1368 -0.2441
    1DIPC   C1B 7449  17.425  24.290   5.286  0.0290 -0.1553 -0.1183
    1DIPC   D2B 7450  17.137  23.970   5.104  0.0408  0.0108 -0.1120
    1DIPC   D3B 7451  17.129  23.573   5.230  0.0743 -0.1218  0.2399
    1DIPC   C4B 7452  16.984  23.238   4.875  0.4464 -0.1407  0.0786
    1DIPC   NC3 7453  17.889   6.831   5.573 -0.0658 -0.3608 -0.3831
    1DIPC   PO4 7454  17.565   7.175   5.483 -0.1157  0.0191 -0.1202
    1DIPC   GL1 7455  17.649   7.076   5.123  0.1326  0.2042 -0.3225
    1DIPC   GL2 7456  17.846   7.297   5.100 -0.1480 -0.1830  0.2368
    1DIPC   C1A 7457  17.740   7.215   4.619  0.1280 -0.0894 -0.0971
    1DIPC   D2A 7458  18.184   7.291   4.429  0.3278 -0.5801  0.2211
    1DIPC   D3A 7459  18.024   7.244   4.139 -0.2043  0.0903  0.1563
    1DIPC   C4A 7460  17.609   7.260   4.044  0.0830  0.0668 -0.0133
    1DIPC   C1B 7461  18.136   7.484   4.876 -0.1007  0.2325  0.3096
    1DIPC   D2B 7462  18.558   7.798   5.074 -0.2237  0.3085  0.1741
    1DIPC   D3B 7463  18.539   7.722   4.602  0.0978 -0.0545 -0.3666
    1DIPC   C4B 7464  18.703   7.267   4.557 -0.2293  0.0099  0.4499
    1DIPC   NC3 7465  23.934   2.269   7.504  0.0801  0.0844 -0.1210
    1DIPC   PO4 7466  23.636   2.495   7.147  0.1256 -0.3513 -0.0160
    1DIPC   GL1 7467  23.667   2.473   6.712  0.2661  0.1409 -0.3767
    1DIPC   GL2 7468  23.801   2.199   6.601  0.0296 -0.2263 -0.3145
    1DIPC   C1A 7469  23.867   2.568   6.317 -0.1921 -0.0781 -0.0976
    1DIPC   D2A 7470  23.758   2.457   5.935  0.4841  0.1289  0.1720
    1DIPC   D3A 7471  23.955   2.661   5.670 -0.4129 -0.2282  0.0525
    1DIPC   C4A 7472  24.078   3.037   5.353  0.0733 -0.1106 -0.0393
    1DIPC   C1B 7473  24.080   2.106   6.237  0.1160  0.1315  0.2749
    1DIPC   D2B 7474  24.225   2.182   5.754  0.0997  0.1257 -0.0787
    1DIPC   D3B 7475  24.400   1.822   5.740 -0.2346 -0.1901  0.3416
    1DIPC   C4B 7476  24.690   1.539   5.693  0.1105 -0.1654 -0.5048
    1DIPC   NC3 7477  22.523  14.402   5.852 -0.0690 -0.3972 -0.0919
    1DIPC   PO4 7478  22.488  14.511   5.436 -0.3410  0.1305  0.2128
    1DIPC   GL1 7479  22.808  14.787   5.102 -0.0542  0.1439 -0.2518
    1DIPC   GL2 7480  23.086  14.640   5.091 -0.1705 -0.0047 -0.0160
    1DIPC   C1A 7481  22.775  14.887   4.670 -0.4279  0.5145  0.1041
    1DIPC   D2A 7482  22.660  14.996   4.228 -0.1328  0.0319 -0.0858
    1DIPC   D3A 7483  22.973  15.288   3.984  0.0739  0.3476 -0.1942
    1DIPC   C4A 7484  23.379  15.021   3.883 -0.2663  0.1330 -0.2533
    1DIPC   C1B 7485  22.825  14.377   4.763 -0.2628  0.0579 -0.2397
    1DIPC   D2B 7486  22.825  14.048   4.410  0.4022  0.0662 -0.0887
    1DIPC   D3B 7487  22.940  13.745   4.014 -0.2033  0.0538  0.0157
    1DIPC   C4B 7488  23.248  13.686   3.781 -0.0940  0.0116 -0.0006
    1DIPC   NC3 7489  12.577  12.632   7.623  0.2958 -0.1647 -0.1393
    1DIPC   PO4 7490  12.596  12.400   7.158  0.0512  0.2008 -0.0690
    1DIPC   GL1 7491  12.648  12.393   6.734  0.2024 -0.1751 -0.1732
    1DIPC   GL2 7492  12.660  12.020   6.443 -0.0565 -0.0588  0.0955
    1DIPC   C1A 7493  12.750  12.520   6.337  0.3669  0.0486  0.1738
    1DIPC   D2A 7494  12.547  12.395   6.009 -0.0057 -0.0646 -0.2760
    1DIPC   D3A 7495  12.168  12.616   5.829 -0.1423 -0.0902 -0.3211
    1DIPC   C4A 7496  12.124  12.647   5.349  0.4649  0.1487  0.0524
    1DIPC   C1B 7497  12.545  11.897   6.067 -0.0425 -0.2063 -0.0127
    1DIPC   D2B 7498  12.266  11.885   5.814 -0.0190  0.1035 -0.0160
    1DIPC   D3B 7499  12.391  12.152   5.548 -0.1751 -0.1387 -0.0824
    1DIPC   C4B 7500  12.811  12.203   5.500 -0.0400  0.0816 -0.1674
    1DIPC   NC3 7501  12.862  15.219   6.895  0.1683 -0.2544 -0.0312
    1DIPC   PO4 7502  13.144  15.535   6.755 -0.0742 -0.3363 -0.1858
    1DIPC   GL1 7503  12.873  15.338   6.396 -0.0848 -0.2103  0.3460
    1DIPC   GL2 7504  12.583  15.542   6.464 -0.4177  0.1000  0.1393
    1DIPC   C1A 7505  12.721  14.934   6.297  0.0596 -0.2423  0.1311
    1DIPC   D2A 7506  12.634  14.750   5.906 -0.2381 -0.0679 -0.1143
    1DIPC   D3A 7507  12.424  14.942   5.641  0.0437 -0.1419 -0.1300
    1DIPC   C4A 7508  12.691  15.160   5.486 -0.1903  0.1919  0.3392
    1DIPC   C1B 7509  12.256  15.761   6.263 -0.2703 -0.0103  0.1597
    1DIPC   D2B 7510  12.012  15.742   5.860 -0.0856 -0.0662 -0.0637
    1DIPC   D3B 7511  12.360  15.498   5.653  0.0303 -0.2072  0.0616
    1DIPC   C4B 7512  12.599  15.313   5.981  0.2162 -0.0540  0.2589
    1DIPC   NC3 7513  25.495   3.549   7.428  0.1934  0.0228 -0.2789
    1DIPC   PO4 7514  25.218   3.447   7.110 -0.2968  0.1240  0.4016
    1DIPC   GL1 7515  25.240   3.218   6.699 -0.4922  0.1476 -0.2114
    1DIPC   GL2 7516  25.041   3.047   6.529 -0.2316 -0.2164  0.2129
    1DIPC   C1A 7517  25.368   3.209   6.245  0.1353  0.0149  0.3053
    1DIPC   D2A 7518  25.678   3.292   5.930 -0.2330  0.0202  0.1181
    1DIPC   D3A 7519  25.961   3.632   5.741  0.3520  0.1107 -0.3544
    1DIPC   C4A 7520  25.833   4.086   5.719  0.0915  0.0312 -0.1796
    1DIPC   C1B 7521  24.905   3.301   6.235  0.2626 -0.0853  0.0884
    1DIPC   D2B 7522  24.726   3.652   5.974 -0.1315 -0.3651  0.0509
    1DIPC   D3B 7523  24.720   3.355   5.598 -0.1211 -0.0083 -0.0003
    1DIPC   C4B 7524  24.414   3.429   5.269 -0.1233 -0.0672  0.1331
    1DIPC   NC3 7525  19.294   1.335   6.812 -0.1528  0.0939 -0.0617
    1DIPC   PO4 7526  19.342   1.005   6.552 -0.0492  0.2735  0.2760
    1DIPC   GL1 7527  19.482   1.151   6.213  0.1529 -0.2798 -0.0296
    1DIPC   GL2 7528  19.311   1.343   5.944  0.0073 -0.0147  0.0319
    1DIPC   C1A 7529  19.786   1.348   5.848 -0.1981  0.0261 -0.1512
    1DIPC   D2A 7530  20.105   1.186   5.727  0.0628  0.2009  0.0110
    1DIPC   D3A 7531  19.901   1.369   5.307 -0.0686 -0.2756 -0.2479
    1DIPC   C4A 7532  19.959   1.144   4.990 -0.0490  0.0877 -0.2634
    1DIPC   C1B 7533  18.979   1.261   5.536  0.0384 -0.0084 -0.2183
    1DIPC   D2B 7534  18.956   1.141   5.140 -0.1033 -0.3252 -0.0597
    1DIPC   D3B 7535  19.278   0.917   5.329 -0.0518 -0.1537  0.0617
    1DIPC   C4B 7536  19.592   0.944   5.428 -0.1857  0.3390 -0.2012
    1DIPC   NC3 7537  13.729  20.323   5.850 -0.0470  0.1902 -0.2288
    1DIPC   PO4 7538  13.369  20.503   5.552 -0.1161  0.3793  0.1935
    1DIPC   GL1 7539  13.342  20.593   5.084 -0.0828  0.0007 -0.1441
    1DIPC   GL2 7540  13.749  20.618   4.878  0.0258 -0.1817  0.1048
    1DIPC   C1A 7541  13.197  20.545   4.706  0.4320  0.0922 -0.2293
    1DIPC   D2A 7542  12.856  20.571   4.384  0.3126  0.3220 -0.0880
    1DIPC   D3A 7543  13.332  20.473   4.210 -0.0818 -0.0540  0.3294
    1DIPC   C4A 7544  13.531  20.095   4.094  0.1784  0.4006  0.0749
    1DIPC   C1B 7545  14.061  20.301   4.918  0.2308 -0.2196  0.0197
    1DIPC   D2B 7546  14.331  20.109   5.108 -0.1005  0.3359 -0.1273
    1DIPC   D3B 7547  14.695  20.266   5.268  0.0290  0.0855 -0.1502
    1DIPC   C4B 7548  14.858  20.616   5.254 -0.1791 -0.2447  0.0593
    1DIPC   NC3 7549  13.193  16.349   7.186 -0.2913 -0.1554 -0.2816
    1DIPC   PO4 7550  13.062  16.028   6.888 -0.0640 -0.1611  0.0795
    1DIPC   GL1 7551  13.437  15.965   6.578 -0.0849  0.0072 -0.1590
    1DIPC   GL2 7552  13.522  15.684   6.338 -0.2413  0.1676  0.1715
    1DIPC   C1A 7553  13.817  16.129   6.268 -0.0544  0.1951 -0.1003
    1DIPC   D2A 7554  13.812  16.247   5.773  0.1274 -0.1286 -0.0230
    1DIPC   D3A 7555  13.871  16.724   5.749  0.0753  0.0178 -0.0509
    1DIPC   C4A 7556  13.575  17.067   5.713 -0.2309 -0.0626  0.2045
    1DIPC   C1B 7557  13.413  15.909   5.964  0.1570  0.0262  0.4162
    1DIPC   D2B 7558  13.457  15.916   5.545  0.1256  0.1177 -0.2814
    1DIPC   D3B 7559  13.838  15.900   5.404 -0.0422  0.0939  0.0982
    1DIPC   C4B 7560  14.247  16.038   5.519 -0.2184  0.0236 -0.1536
    1DIPC   NC3 7561   8.483   7.747   6.960 -0.1398  0.1899 -0.1124
    1DIPC   PO4 7562   8.584   8.174   7.000 -0.2500 -0.3737 -0.0164
    1DIPC   GL1 7563   8.502   8.108   6.584 -0.0183 -0.0826  0.0027
    1DIPC   GL2 7564   8.553   7.782   6.514  0.1390  0.0584 -0.0507
    1DIPC   C1A 7565   8.207   8.112   6.317 -0.0261  0.1458 -0.1961
    1DIPC   D2A 7566   7.878   8.382   6.110 -0.2907  0.0845  0.4116
    1DIPC   D3A 7567   7.950   8.312   5.631 -0.1123  0.0405  0.1824
    1DIPC   C4A 7568   7.637   8.534   5.522  0.2474 -0.1855  0.1619
    1DIPC   C1B 7569   8.548   7.894   6.048  0.0725  0.2335  0.3982
    1DIPC   D2B 7570   9.007   8.129   5.973  0.3249 -0.0919  0.5668
    1DIPC   D3B 7571   8.894   8.049   5.496 -0.0500 -0.2615 -0.2303
    1DIPC   C4B 7572   9.186   7.986   5.184  0.0416 -0.0429  0.1914
    1DIPC   NC3 7573   6.173  30.155   7.177  0.0011 -0.2973  0.3605
    1DIPC   PO4 7574   6.474   0.011   7.292  0.1916 -0.2803 -0.2922
    1DIPC   GL1 7575   6.332   0.146   6.856 -0.0838  0.0156 -0.0095
    1DIPC   GL2 7576   6.597   0.215   6.646 -0.0589  0.3205 -0.2381
    1DIPC   C1A 7577   6.070   0.276   6.563 -0.2433 -0.2325 -0.3399
    1DIPC   D2A 7578   5.860   0.323   6.198 -0.5657 -0.1965 -0.2379
    1DIPC   D3A 7579   5.739   0.671   6.263  0.3179 -0.0199  0.1023
    1DIPC   C4A 7580   5.931   0.826   6.681 -0.1126 -0.0838  0.0891
    1DIPC   C1B 7581   6.773   0.457   6.421 -0.1831 -0.1560 -0.4948
    1DIPC   D2B 7582   6.925   0.476   5.897 -0.1590  0.3187  0.1443
    1DIPC   D3B 7583   7.368   0.416   5.885 -0.0182 -0.1700 -0.0388
    1DIPC   C4B 7584   7.727   0.520   6.062  0.2825  0.1533 -0.0594
    1DIPC   NC3 7585   7.131   9.938   6.654  0.2316 -0.2365 -0.1065
    1DIPC   PO4 7586   7.327   9.558   6.664  0.3468 -0.0175 -0.1094
    1DIPC   GL1 7587   7.200   9.616   6.280  0.1285 -0.3316  0.2739
    1DIPC   GL2 7588   7.055   9.390   6.261  0.1131  0.1748 -0.1413
    1DIPC   C1A 7589   7.483   9.522   5.899 -0.0203  0.0547  0.2231
    1DIPC   D2A 7590   7.488   9.860   5.575  0.3002  0.2724  0.0619
    1DIPC   D3A 7591   7.574   9.770   5.145  0.1138  0.0612  0.1856
    1DIPC   C4A 7592   7.518  10.043   4.845  0.0242  0.1701  0.1705
    1DIPC   C1B 7593   7.037   9.146   5.853  0.0325 -0.0411 -0.0718
    1DIPC   D2B 7594   7.062   8.711   5.728  0.0449  0.2754 -0.1958
    1DIPC   D3B 7595   7.058   8.879   5.361  0.0627  0.2833 -0.1995
    1DIPC   C4B 7596   7.518   8.910   5.161  0.1155  0.0082  0.0184
    1DIPC   NC3 7597   8.297  17.319   6.019  0.0727 -0.0530  0.3178
    1DIPC   PO4 7598   8.267  17.891   5.967  0.0517 -0.0748 -0.0342
    1DIPC   GL1 7599   8.360  18.130   5.620  0.0725  0.1452 -0.2163
    1DIPC   GL2 7600   8.521  18.409   5.588  0.1662 -0.0982  0.3204
    1DIPC   C1A 7601   8.249  18.166   5.248 -0.0177 -0.1505  0.0450
    1DIPC   D2A 7602   8.187  18.345   4.887  0.1321 -0.0616 -0.3031
    1DIPC   D3A 7603   8.326  18.193   4.479 -0.2275  0.0502 -0.0249
    1DIPC   C4A 7604   8.090  18.395   4.144 -0.1220  0.2171  0.2590
    1DIPC   C1B 7605   8.739  18.067   5.285  0.2036  0.0397 -0.0328
    1DIPC   D2B 7606   8.590  18.054   4.871 -0.1330  0.0367  0.0934
    1DIPC   D3B 7607   8.629  18.496   4.730 -0.2249  0.3627  0.2648
    1DIPC   C4B 7608   8.628  18.511   4.232  0.0638  0.1864  0.0645
    1DIPC   NC3 7609  10.537   3.702   6.331 -0.1409 -0.0307 -0.0363
    1DIPC   PO4 7610  10.872   3.513   6.212  0.1566  0.4052 -0.1327
    1DIPC   GL1 7611  10.592   3.573   5.795 -0.0196 -0.0805 -0.1773
    1DIPC   GL2 7612  10.512   3.274   5.680  0.1012  0.1751  0.0122
    1DIPC   C1A 7613  10.613   3.717   5.420 -0.5046 -0.1664  0.0332
    1DIPC   D2A 7614  10.463   3.566   4.926 -0.1250 -0.0096  0.1697
    1DIPC   D3A 7615  10.144   3.322   4.738  0.2503  0.0704  0.0158
    1DIPC   C4A 7616  10.142   2.817   4.624 -0.1236 -0.2063 -0.0900
    1DIPC   C1B 7617  10.768   3.244   5.263 -0.4110  0.1832 -0.1030
    1DIPC   D2B 7618  10.603   3.102   4.880 -0.2684  0.2079  0.3407
    1DIPC   D3B 7619  10.820   3.453   4.539 -0.2848 -0.4189 -0.0119
    1DIPC   C4B 7620  11.136   3.347   4.242 -0.3060 -0.1565 -0.0777
    1DIPC   NC3 7621  10.391  21.492   5.809 -0.1255 -0.3043 -0.2487
    1DIPC   PO4 7622  10.372  20.980   5.663  0.0635  0.2629  0.1773
    1DIPC   GL1 7623  10.040  20.890   5.280 -0.0980  0.0902  0.1506
    1DIPC   GL2 7624   9.884  20.502   5.313  0.1667 -0.3600 -0.2106
    1DIPC   C1A 7625   9.727  21.047   4.927 -0.1783 -0.0691 -0.0485
    1DIPC   D2A 7626   9.653  21.322   4.590 -0.2232 -0.0844 -0.0458
    1DIPC   D3A 7627   9.300  21.370   4.838  0.3792  0.0193  0.4262
    1DIPC   C4A 7628   8.853  21.182   4.826 -0.1517 -0.0994  0.2435
    1DIPC   C1B 7629   9.683  20.475   4.911  0.0834  0.1104 -0.0790
    1DIPC   D2B 7630   9.495  20.308   4.628  0.0318 -0.2170  0.1650
    1DIPC   D3B 7631   9.820  20.469   4.414 -0.0478 -0.1691  0.0123
    1DIPC   C4B 7632   9.918  20.318   4.013 -0.3388  0.1122  0.1780
    1DIPC   NC3 7633   7.763   6.718   6.821  0.0778 -0.1526  0.0798
    1DIPC   PO4 7634   8.292   6.604   6.862  0.1731 -0.1193  0.0053
    1DIPC   GL1 7635   8.340   6.641   6.468 -0.0217 -0.0952 -0.3957
    1DIPC   GL2 7636   8.593   6.826   6.442  0.2820  0.0700 -0.0898
    1DIPC   C1A 7637   8.317   6.645   6.042 -0.1129  0.0787  0.1113
    1DIPC   D2A 7638   8.374   6.410   5.728  0.0196 -0.2276  0.0224
    1DIPC   D3A 7639   8.411   6.686   5.405  0.3441  0.1789  0.2207
    1DIPC   C4A 7640   8.458   6.506   4.930 -0.0576  0.0731  0.0499
    1DIPC   C1B 7641   8.668   7.007   6.019  0.1393 -0.2556  0.0484
    1DIPC   D2B 7642   8.780   6.800   5.688 -0.0671  0.0323 -0.1300
    1DIPC   D3B 7643   8.849   6.981   5.257  0.0572  0.0578 -0.0114
    1DIPC   C4B 7644   9.293   6.972   5.094  0.0695  0.0146  0.1454
    1DIPC   NC3 7645  19.026   7.494   5.855 -0.3314 -0.2279  0.1716
    1DIPC   PO4 7646  18.927   7.834   5.689 -0.0561 -0.0448 -0.0000
    1DIPC   GL1 7647  19.043   7.695   5.260 -0.0189 -0.6074 -0.0411
    1DIPC   GL2 7648  19.153   8.007   5.141 -0.2578 -0.1867  0.1840
    1DIPC   C1A 7649  19.006   7.435   4.919  0.1907  0.0949  0.2396
    1DIPC   D2A 7650  19.104   7.771   4.626 -0.2118  0.0092 -0.1841
    1DIPC   D3A 7651  18.972   7.562   4.214 -0.1693  0.0124 -0.0682
    1DIPC   C4A 7652  18.561   7.566   3.985 -0.1333 -0.3828 -0.3277
    1DIPC   C1B 7653  19.537   7.926   4.786  0.3526  0.1937  0.0928
    1DIPC   D2B 7654  19.572   7.759   4.306  0.0304  0.1601  0.0383
    1DIPC   D3B 7655  19.243   8.016   4.182  0.2197 -0.1259 -0.1499
    1DIPC   C4B 7656  18.882   8.083   3.944  0.0601  0.0005 -0.1867
    1DIPC   NC3 7657  17.199   5.855   5.978 -0.0751  0.1947 -0.0573
    1DIPC   PO4 7658  16.795   5.892   5.675 -0.3997 -0.1460  0.1052
    1DIPC   GL1 7659  16.845   6.110   5.264 -0.1598  0.0219  0.1745
    1DIPC   GL2 7660  16.515   6.301   5.091 -0.0482 -0.1739  0.0267
    1DIPC   C1A 7661  17.048   6.046   4.906 -0.2029 -0.2896 -0.0564
    1DIPC   D2A 7662  17.025   5.894   4.596 -0.0520  0.2856  0.0829
    1DIPC   D3A 7663  16.851   5.971   4.184  0.0773 -0.1586  0.0024
    1DIPC   C4A 7664  16.700   6.395   4.047  0.0866  0.1061 -0.0612
    1DIPC   C1B 7665  16.498   5.965   4.869 -0.3414  0.2429 -0.0166
    1DIPC   D2B 7666  16.476   5.652   4.514  0.2532 -0.0012  0.0100
    1DIPC   D3B 7667  16.358   5.748   4.119  0.0664  0.2693  0.1225
    1DIPC   C4B 7668  15.875   5.872   4.148 -0.1096  0.0855 -0.0595
    1DIPC   NC3 7669  26.430   0.158   7.773  0.0064  0.0122  0.1603
    1DIPC   PO4 7670  26.334   0.354   7.359 -0.1783  0.0525 -0.2372
    1DIPC   GL1 7671  26.426   0.178   6.948  0.0260  0.1174  0.0269
    1DIPC   GL2 7672  26.482  30.203   6.842 -0.0891 -0.3240  0.1283
    1DIPC   C1A 7673  26.268   0.175   6.474 -0.0903  0.0773  0.1334
    1DIPC   D2A 7674  26.382  30.325   6.027  0.2554 -0.1951  0.0604
    1DIPC   D3A 7675  26.204   0.404   5.808 -0.2450 -0.1959  0.2259
    1DIPC   C4A 7676  26.472   0.643   5.472  0.0035 -0.0249  0.2675
    1DIPC   C1B 7677  26.569  30.203   6.517 -0.1892 -0.0326 -0.0727
    1DIPC   D2B 7678  26.838  30.216   6.274  0.2117  0.0999 -0.2396
    1DIPC   D3B 7679  26.747  30.086   5.781  0.2109  0.1190  0.0785
    1DIPC   C4B 7680  26.877  30.029   5.344  0.1061 -0.0014 -0.2797
    1DIPC   NC3 7681  13.909   2.370   6.756 -0.0415 -0.2299 -0.0395
    1DIPC   PO4 7682  14.258   2.178   6.529 -0.0433 -0.3674  0.0740
    1DIPC   GL1 7683  14.157   2.384   6.087 -0.2812  0.0404  0.0695
    1DIPC   GL2 7684  14.267   2.263   5.822  0.1668  0.3871  0.0571
    1DIPC   C1A 7685  14.352   2.819   5.931  0.1601 -0.2070  0.2107
    1DIPC   D2A 7686  14.181   3.248   5.795  0.2003 -0.0435  0.1244
    1DIPC   D3A 7687  14.400   3.635   5.844 -0.0188 -0.0905 -0.5347
    1DIPC   C4A 7688  14.179   3.986   6.067  0.1586  0.2026  0.0562
    1DIPC   C1B 7689  14.329   2.116   5.357  0.0411  0.1266  0.0720
    1DIPC   D2B 7690  14.547   1.935   4.930  0.1756 -0.2748 -0.3202
    1DIPC   D3B 7691  14.283   2.149   4.773 -0.3884  0.4313  0.1661
    1DIPC   C4B 7692  13.925   2.165   4.840  0.2947  0.0719 -0.0275
    1DIPC   NC3 7693  12.875  20.470   5.645  0.2371  0.0678 -0.3004
    1DIPC   PO4 7694  12.463  20.473   5.604  0.0506 -0.0274  0.0171
    1DIPC   GL1 7695  12.567  20.696   5.293 -0.4199 -0.0185  0.1088
    1DIPC   GL2 7696  12.151  20.632   5.141  0.2513  0.0949  0.0413
    1DIPC   C1A 7697  12.749  20.892   4.949  0.0142  0.0014 -0.1547
    1DIPC   D2A 7698  13.076  21.118   4.850 -0.0817 -0.1020 -0.1399
    1DIPC   D3A 7699  13.204  20.977   4.427  0.4287  0.1615  0.0370
    1DIPC   C4A 7700  13.646  20.889   4.369 -0.1264 -0.0073 -0.0849
    1DIPC   C1B 7701  11.838  20.898   4.975  0.1874  0.2770 -0.2638
    1DIPC   D2B 7702  11.479  20.812   4.587  0.2584 -0.2039 -0.1685
    1DIPC   D3B 7703  11.834  20.876   4.312 -0.3028 -0.0248  0.0905
    1DIPC   C4B 7704  12.238  21.176   4.376  0.1487  0.0487  0.0651
    1DIPC   NC3 7705  22.277  10.909   6.081  0.5210 -0.1830 -0.2192
    1DIPC   PO4 7706  22.304  11.258   5.831 -0.0110  0.0101 -0.4217
    1DIPC   GL1 7707  22.322  11.084   5.566 -0.0705  0.1999  0.0043
    1DIPC   GL2 7708  22.643  11.019   5.492  0.0676  0.1079  0.2276
    1DIPC   C1A 7709  22.300  11.331   5.088  0.0042  0.1714  0.0019
    1DIPC   D2A 7710  22.497  11.761   4.919  0.0302  0.1794 -0.1247
    1DIPC   D3A 7711  22.955  11.526   4.942  0.1521  0.2840 -0.1732
    1DIPC   C4A 7712  23.224  11.839   4.785 -0.1758 -0.1900  0.2323
    1DIPC   C1B 7713  22.726  11.087   5.040  0.0875  0.0791  0.0241
    1DIPC   D2B 7714  22.596  11.272   4.668 -0.2265  0.0891  0.0450
    1DIPC   D3B 7715  22.625  11.661   4.345  0.1624 -0.2915  0.2693
    1DIPC   C4B 7716  22.994  11.919   4.277 -0.4471  0.2682  0.6501
    1DIPC   NC3 7717   4.342  27.544   6.804  0.2478  0.1114  0.4507
    1DIPC   PO4 7718   4.358  27.033   6.804  0.2520  0.1317 -0.1647
    1DIPC   GL1 7719   4.374  27.191   6.373 -0.0263 -0.0589  0.0007
    1DIPC   GL2 7720   4.563  27.427   6.331  0.0819 -0.0938  0.1895
    1DIPC   C1A 7721   4.067  27.358   6.103  0.1318 -0.0877  0.0604
    1DIPC   D2A 7722   4.087  27.627   5.675 -0.2014  0.1298  0.0747
    1DIPC   D3A 7723   4.103  27.482   5.241  0.1795 -0.1307  0.2830
    1DIPC   C4A 7724   4.192  27.666   4.929  0.3263  0.2106 -0.0214
    1DIPC   C1B 7725   4.563  27.316   5.895  0.0589 -0.2640 -0.0491
    1DIPC   D2B 7726   4.308  26.997   5.790  0.0599  0.0363 -0.2488
    1DIPC   D3B 7727   3.917  27.078   5.650 -0.1844 -0.0053  0.0803
    1DIPC   C4B 7728   3.591  26.758   5.792 -0.0108 -0.0115  0.0338
    1DIPC   NC3 7729   2.582   4.134   6.459 -0.2084  0.3490 -0.0404
    1DIPC   PO4 7730   3.011   3.953   6.659 -0.0587 -0.0047 -0.1521
    1DIPC   GL1 7731   3.229   3.806   6.415  0.1278  0.1905 -0.1167
    1DIPC   GL2 7732   3.474   3.947   6.271  0.0424  0.0542  0.4525
    1DIPC   C1A 7733   3.100   3.688   5.994 -0.1289 -0.0622 -0.4158
    1DIPC   D2A 7734   3.018   3.812   5.606 -0.1596  0.0110 -0.1456
    1DIPC   D3A 7735   3.041   3.531   5.292  0.0316 -0.0325  0.2057
    1DIPC   C4A 7736   2.925   3.523   4.847  0.0296 -0.0663 -0.2066
    1DIPC   C1B 7737   3.431   4.098   5.839 -0.2177  0.0943  0.0964
    1DIPC   D2B 7738   3.319   4.147   5.441  0.1471 -0.2499 -0.0486
    1DIPC   D3B 7739   3.562   4.359   5.135  0.1198  0.2193 -0.0358
    1DIPC   C4B 7740   3.223   4.396   4.745  0.1842 -0.1059  0.1762
    1DIPC   NC3 7741   7.926  12.937   6.537  0.1789 -0.0624  0.1853
    1DIPC   PO4 7742   7.960  13.355   6.586 -0.2355 -0.0692 -0.3148
    1DIPC   GL1 7743   8.017  13.257   6.141 -0.1750  0.0851 -0.0626
    1DIPC   GL2 7744   8.371  13.342   6.047  0.0117  0.0375 -0.2009
    1DIPC   C1A 7745   8.001  13.419   5.711 -0.1295 -0.2492 -0.0233
    1DIPC   D2A 7746   7.775  13.603   5.352 -0.1459  0.0378 -0.2644
    1DIPC   D3A 7747   8.121  13.568   5.079  0.1243 -0.1984  0.1248
    1DIPC   C4A 7748   8.322  13.332   4.781 -0.2245 -0.1459 -0.0214
    1DIPC   C1B 7749   8.394  13.120   5.738 -0.6189 -0.0673  0.1765
    1DIPC   D2B 7750   8.166  13.145   5.339 -0.0812 -0.4635  0.3873
    1DIPC   D3B 7751   7.757  13.097   5.204 -0.2088 -0.4069 -0.2547
    1DIPC   C4B 7752   7.673  12.753   4.780  0.0948  0.0228  0.3566
    1DIPC   NC3 7753  17.801  25.655   6.474 -0.2155  0.1502  0.1754
    1DIPC   PO4 7754  17.440  25.508   6.391  0.0730 -0.4147 -0.2098
    1DIPC   GL1 7755  17.414  25.667   5.943 -0.0428  0.3153  0.2258
    1DIPC   GL2 7756  17.371  25.985   5.971 -0.2415  0.1331  0.3320
    1DIPC   C1A 7757  17.644  25.652   5.652  0.2459  0.2450 -0.1999
    1DIPC   D2A 7758  17.568  25.853   5.209  0.0579 -0.1045 -0.1333
    1DIPC   D3A 7759  17.161  26.115   5.145 -0.1256  0.0281  0.0439
    1DIPC   C4A 7760  16.696  26.016   5.249 -0.1602  0.0556 -0.1459
    1DIPC   C1B 7761  17.439  26.212   5.546 -0.1490 -0.0167  0.1193
    1DIPC   D2B 7762  17.706  26.390   5.122 -0.0968 -0.0447  0.1920
    1DIPC   D3B 7763  17.330  26.640   5.275 -0.0170  0.2006 -0.0095
    1DIPC   C4B 7764  17.200  26.741   5.749 -0.1894  0.4382  0.1675
    1DIPC   NC3 7765  23.346   6.166   6.447  0.0042  0.1390 -0.0473
    1DIPC   PO4 7766  22.943   6.229   6.385  0.1984 -0.0978  0.2151
    1DIPC   GL1 7767  23.117   6.250   5.909  0.1051  0.1320  0.1963
    1DIPC   GL2 7768  23.366   6.056   5.971 -0.0006  0.0790 -0.1163
    1DIPC   C1A 7769  23.015   6.013   5.512  0.0263 -0.0215  0.0313
    1DIPC   D2A 7770  22.756   5.867   5.207 -0.0629  0.0092  0.0253
    1DIPC   D3A 7771  22.471   6.133   5.167 -0.0591 -0.2128 -0.0892
    1DIPC   C4A 7772  22.519   6.435   4.858  0.2534  0.1477 -0.1252
    1DIPC   C1B 7773  23.403   5.829   5.654 -0.1216 -0.2933 -0.2378
    1DIPC   D2B 7774  23.687   5.521   5.693  0.0677  0.2184  0.0862
    1DIPC   D3B 7775  24.101   5.547   5.329 -0.0930  0.0731 -0.1048
    1DIPC   C4B 7776  24.524   5.210   5.216 -0.0331 -0.0748  0.2997
    1DIPC   NC3 7777  10.862   0.173   6.540  0.3197  0.0520  0.1022
    1DIPC   PO4 7778  10.381  30.268   6.593  0.0789  0.1011 -0.1591
    1DIPC   GL1 7779  10.562  30.351   6.153  0.1642  0.0563  0.2784
    1DIPC   GL2 7780  10.927  30.187   6.087 -0.0539 -0.0109  0.1697
    1DIPC   C1A 7781  10.701   0.252   5.750 -0.3328 -0.1865 -0.0032
    1DIPC   D2A 7782  10.651   0.583   5.524  0.0049  0.0558  0.0531
    1DIPC   D3A 7783  10.675   0.721   5.107 -0.0943 -0.2984  0.1599
    1DIPC   C4A 7784  10.329   0.964   5.011  0.0324  0.0482  0.0537
    1DIPC   C1B 7785  11.077  30.304   5.687  0.1745 -0.2511  0.1382
    1DIPC   D2B 7786  10.942  29.961   5.499 -0.1890 -0.1409 -0.2386
    1DIPC   D3B 7787  10.481  29.723   5.471 -0.1932 -0.0262 -0.0290
    1DIPC   C4B 7788  10.266  29.746   5.115  0.2324  0.1428  0.0936
    1DIPC   NC3 7789  20.323   9.325   5.839  0.1889  0.0218 -0.0888
    1DIPC   PO4 7790  20.450   8.964   5.808 -0.0087 -0.0159  0.2007
    1DIPC   GL1 7791  20.260   8.685   5.392  0.1102 -0.2559  0.0175
    1DIPC   GL2 7792  20.020   8.411   5.470  0.1107  0.0062  0.2849
    1DIPC   C1A 7793  20.435   8.662   5.040  0.0423 -0.2708 -0.1401
    1DIPC   D2A 7794  20.816   8.603   4.907 -0.0184  0.2487 -0.0854
    1DIPC   D3A 7795  20.987   8.593   4.525 -0.0355 -0.1523 -0.1136
    1DIPC   C4A 7796  20.977   8.780   4.092  0.0216 -0.0152 -0.3770
    1DIPC   C1B 7797  19.875   7.995   5.345  0.3218  0.2190 -0.1534
    1DIPC   D2B 7798  20.127   7.614   5.146  0.0017  0.0857  0.1146
    1DIPC   D3B 7799  20.234   7.471   5.592  0.0312  0.0317 -0.1476
    1DIPC   C4B 7800  20.632   7.490   5.791 -0.3886 -0.1185 -0.0583
    1DIPC   NC3 7801   2.351  29.658   7.417  0.1205 -0.0507  0.2216
    1DIPC   PO4 7802   2.767  29.495   7.253  0.1749  0.2211 -0.1066
    1DIPC   GL1 7803   3.001  29.750   6.957 -0.1159 -0.0636 -0.2846
    1DIPC   GL2 7804   2.800  30.064   6.825  0.1661  0.0170  0.2607
    1DIPC   C1A 7805   3.191  29.874   6.571  0.1632 -0.0094  0.0024
    1DIPC   D2A 7806   3.461  29.772   6.151  0.0888  0.1932 -0.0566
    1DIPC   D3A 7807   3.564  29.903   5.749 -0.0244  0.1054 -0.1032
    1DIPC   C4A 7808   3.751  30.299   5.586  0.1086 -0.0769 -0.1033
    1DIPC   C1B 7809   2.433  30.077   6.590 -0.1069  0.0899  0.0093
    1DIPC   D2B 7810   2.282  30.058   6.192 -0.2580  0.0716  0.3002
    1DIPC   D3B 7811   2.581  30.309   5.929  0.1147  0.0455  0.0882
    1DIPC   C4B 7812   3.057   0.053   5.774  0.3089 -0.0371 -0.0408
    1DIPC   NC3 7813  12.017   4.238   6.541  0.0582 -0.0884 -0.0000
    1DIPC   PO4 7814  12.041   4.403   6.184 -0.1522  0.0265  0.1465
    1DIPC   GL1 7815  12.282   4.177   5.859 -0.1889  0.1424 -0.2183
    1DIPC   GL2 7816  12.535   3.980   5.934  0.0591  0.2441  0.0445
    1DIPC   C1A 7817  12.055   3.769   5.759 -0.0245  0.3011 -0.1178
    1DIPC   D2A 7818  12.228   3.479   5.551 -0.2283  0.3189  0.0269
    1DIPC   D3A 7819  12.035   3.656   5.252  0.3109  0.0716 -0.2545
    1DIPC   C4A 7820  12.029   3.758   4.788  0.0789  0.1587  0.1669
    1DIPC   C1B 7821  12.570   3.784   5.558  0.0775  0.2292 -0.0460
    1DIPC   D2B 7822  12.682   3.566   5.025  0.0089 -0.0600 -0.2534
    1DIPC   D3B 7823  12.998   3.639   4.711 -0.2102  0.0942  0.1872
    1DIPC   C4B 7824  13.252   3.394   5.042  0.2727 -0.0621  0.0674
    1DIPC   NC3 7825   9.512   7.124   6.981 -0.0098 -0.2525 -0.5180
    1DIPC   PO4 7826   9.350   7.628   6.907  0.1560  0.0644  0.0025
    1DIPC   GL1 7827   9.258   7.719   6.511  0.0483 -0.0701 -0.1352
    1DIPC   GL2 7828   8.962   7.656   6.332  0.1157  0.1678  0.2390
    1DIPC   C1A 7829   9.374   7.737   6.078  0.0234  0.4794  0.2165
    1DIPC   D2A 7830   9.304   7.771   5.658 -0.0239  0.3970  0.1248
    1DIPC   D3A 7831   9.518   7.606   5.300  0.1023  0.0879 -0.1930
    1DIPC   C4A 7832   9.452   7.497   4.873 -0.1924  0.0049  0.0715
    1DIPC   C1B 7833   8.883   7.496   5.896 -0.2637 -0.0995 -0.0036
    1DIPC   D2B 7834   8.906   7.450   5.402 -0.1929  0.1152  0.0473
    1DIPC   D3B 7835   8.621   7.744   5.095 -0.1632  0.2405  0.0042
    1DIPC   C4B 7836   8.310   7.550   4.980  0.0516 -0.3645 -0.0533
    1DIPC   NC3 7837  13.454  28.293   6.396 -0.0835 -0.1747  0.0181
    1DIPC   PO4 7838  13.047  28.336   6.336 -0.2591  0.0263  0.4079
    1DIPC   GL1 7839  12.900  28.317   5.875 -0.1000 -0.0455  0.0657
    1DIPC   GL2 7840  12.750  27.945   5.953  0.1182  0.0278  0.2416
    1DIPC   C1A 7841  12.833  28.201   5.439 -0.0265 -0.0484  0.3234
    1DIPC   D2A 7842  12.461  27.966   5.203  0.4330  0.2972  0.0323
    1DIPC   D3A 7843  12.472  27.611   5.465  0.0572  0.0846 -0.4559
    1DIPC   C4A 7844  12.418  27.550   5.885 -0.0668 -0.0391  0.2472
    1DIPC   C1B 7845  12.429  28.146   5.666 -0.0881 -0.4490  0.0021
    1DIPC   D2B 7846  12.066  28.115   5.410 -0.0011  0.0886  0.1489
    1DIPC   D3B 7847  11.786  27.974   5.100 -0.0062 -0.2160 -0.1453
    1DIPC   C4B 7848  11.388  27.947   5.132 -0.0374  0.3031  0.4404
    1DIPC   NC3 7849  13.331  26.969   6.858  0.0375 -0.0450 -0.1514
    1DIPC   PO4 7850  13.041  27.258   6.588  0.0633 -0.1326  0.1929
    1DIPC   GL1 7851  12.945  27.118   6.150  0.0789 -0.2718  0.1466
    1DIPC   GL2 7852  12.930  27.474   6.009  0.0824 -0.0210  0.4993
    1DIPC   C1A 7853  12.645  27.122   5.696 -0.0996  0.3161  0.1434
    1DIPC   D2A 7854  12.166  27.202   5.668 -0.1828 -0.0093  0.0160
    1DIPC   D3A 7855  12.006  27.545   5.415 -0.0847  0.0446  0.1100
    1DIPC   C4A 7856  12.131  27.507   5.009  0.3693  0.1955 -0.2307
    1DIPC   C1B 7857  12.957  27.479   5.615 -0.0364  0.2273  0.1180
    1DIPC   D2B 7858  12.935  27.671   5.326 -0.1993 -0.4265 -0.0373
    1DIPC   D3B 7859  12.649  27.547   4.984  0.1875 -0.0547 -0.2650
    1DIPC   C4B 7860  12.622  27.620   4.489  0.3341 -0.0764  0.0104
    1DIPC   NC3 7861  12.655  23.040   6.525  0.1276  0.1154 -0.2366
    1DIPC   PO4 7862  12.623  23.465   6.386 -0.0546 -0.0136  0.0234
    1DIPC   GL1 7863  12.531  23.456   5.852  0.1669  0.0939 -0.2741
    1DIPC   GL2 7864  12.337  23.353   5.690 -0.0125 -0.0141  0.0062
    1DIPC   C1A 7865  12.839  23.599   5.630  0.4015  0.2990 -0.1923
    1DIPC   D2A 7866  13.006  23.413   5.208 -0.4229  0.2455  0.0810
    1DIPC   D3A 7867  13.109  23.889   5.265 -0.3971  0.0910  0.1474
    1DIPC   C4A 7868  13.167  24.044   4.928 -0.0328 -0.0145 -0.0693
    1DIPC   C1B 7869  12.131  23.767   5.737  0.1248  0.1257  0.1182
    1DIPC   D2B 7870  12.170  24.124   5.878 -0.0601 -0.1321  0.1117
    1DIPC   D3B 7871  12.576  24.049   5.650  0.1658 -0.0718  0.1770
    1DIPC   C4B 7872  12.900  24.273   5.596  0.1515  0.2589  0.1085
    1DIPC   NC3 7873  15.029  19.736   5.627  0.2009 -0.0180  0.0863
    1DIPC   PO4 7874  14.681  19.889   5.539 -0.0267  0.0722 -0.3693
    1DIPC   GL1 7875  14.709  19.769   5.135 -0.2446  0.0018 -0.1754
    1DIPC   GL2 7876  14.880  19.451   5.229 -0.2342 -0.1961  0.2156
    1DIPC   C1A 7877  14.730  19.665   4.695 -0.1911  0.1083  0.0338
    1DIPC   D2A 7878  14.970  19.540   4.339  0.2324  0.1626 -0.1221
    1DIPC   D3A 7879  15.009  19.768   3.915 -0.0058 -0.0529 -0.0324
    1DIPC   C4A 7880  15.111  20.212   4.034 -0.1272  0.0837  0.0854
    1DIPC   C1B 7881  14.971  19.249   4.832 -0.0494 -0.2151  0.4035
    1DIPC   D2B 7882  15.245  19.126   4.485  0.0660 -0.0382  0.1372
    1DIPC   D3B 7883  15.271  18.822   4.223  0.0112 -0.2931  0.3263
    1DIPC   C4B 7884  15.069  18.406   4.280 -0.5780 -0.2029  0.3452
    1DIPC   NC3 7885  13.945  13.571   7.567  0.0560  0.4668 -0.0324
    1DIPC   PO4 7886  14.410  13.389   7.450 -0.2001  0.4192 -0.0610
    1DIPC   GL1 7887  14.320  13.251   6.984 -0.2204  0.1519 -0.0541
    1DIPC   GL2 7888  14.055  13.414   6.896 -0.1492  0.0453  0.2886
    1DIPC   C1A 7889  14.518  13.303   6.517  0.0786 -0.1512  0.1623
    1DIPC   D2A 7890  14.655  13.248   6.123  0.1547 -0.1199 -0.0942
    1DIPC   D3A 7891  14.473  13.505   5.762 -0.1585  0.2528 -0.2318
    1DIPC   C4A 7892  14.405  13.932   5.671  0.1134  0.2070 -0.0473
    1DIPC   C1B 7893  13.911  13.273   6.489  0.0414 -0.1226 -0.3923
    1DIPC   D2B 7894  14.155  13.387   6.133 -0.0204  0.1565  0.2120
    1DIPC   D3B 7895  14.197  13.077   5.808 -0.0775  0.1075 -0.2356
    1DIPC   C4B 7896  14.148  13.044   5.410  0.2887  0.0934  0.1025
    1DIPC   NC3 7897   9.994   0.543   6.799  0.2855  0.0429  0.1920
    1DIPC   PO4 7898  10.371   0.539   6.528  0.2156 -0.0070 -0.0370
    1DIPC   GL1 7899  10.770   0.568   6.186  0.0723  0.0245  0.0015
    1DIPC   GL2 7900  11.030   0.390   6.120  0.0943 -0.0430 -0.1123
    1DIPC   C1A 7901  10.844   0.848   5.902  0.0981 -0.0377 -0.1046
    1DIPC   D2A 7902  11.072   0.956   5.631  0.1474  0.1248 -0.1490
    1DIPC   D3A 7903  10.954   1.095   5.289  0.0830 -0.0256 -0.0711
    1DIPC   C4A 7904  11.164   1.460   5.044  0.3007  0.0035  0.1998
    1DIPC   C1B 7905  11.163   0.471   5.717 -0.0134 -0.0935 -0.3550
    1DIPC   D2B 7906  11.463   0.666   5.389 -0.0341  0.0268 -0.2435
    1DIPC   D3B 7907  11.407   0.177   5.348  0.0591 -0.1196  0.1652
    1DIPC   C4B 7908  11.630   0.031   4.928 -0.1701  0.0317  0.0511
    1DIPC   NC3 7909  21.699  29.307   6.696 -0.1273 -0.0465 -0.3451
    1DIPC   PO4 7910  22.124  29.549   6.799 -0.3563  0.3477  0.0203
    1DIPC   GL1 7911  22.146  29.773   6.355 -0.1514  0.0291  0.2640
    1DIPC   GL2 7912  22.410  29.975   6.158 -0.0651 -0.1103 -0.1129
    1DIPC   C1A 7913  21.988  29.666   5.940 -0.0736  0.0990  0.1754
    1DIPC   D2A 7914  21.960  29.601   5.501 -0.0841  0.1513  0.4746
    1DIPC   D3A 7915  22.116  29.999   5.428 -0.0296  0.1511 -0.1748
    1DIPC   C4A 7916  22.278  30.225   5.062 -0.0252 -0.3105 -0.0167
    1DIPC   C1B 7917  22.268  30.341   5.930  0.0911  0.0887 -0.2820
    1DIPC   D2B 7918  22.323   0.196   5.515 -0.0682  0.1615 -0.3119
    1DIPC   D3B 7919  22.059   0.249   5.244  0.1526 -0.3504 -0.2213
    1DIPC   C4B 7920  22.391   0.458   5.077 -0.0084  0.0433  0.2589
    1DIPC   NC3 7921  20.043  16.815   6.369  0.1976 -0.0578  0.1111
    1DIPC   PO4 7922  20.035  17.090   6.106  0.1441  0.2699  0.3318
    1DIPC   GL1 7923  19.620  16.970   5.830  0.1773 -0.0928 -0.0165
    1DIPC   GL2 7924  19.244  17.185   5.764 -0.2879 -0.1321 -0.0887
    1DIPC   C1A 7925  19.321  16.689   5.638  0.0176 -0.3494  0.0819
    1DIPC   D2A 7926  19.245  16.545   5.244 -0.0768 -0.1921  0.1408
    1DIPC   D3A 7927  19.468  16.693   4.826 -0.0399  0.2757  0.0685
    1DIPC   C4A 7928  19.389  16.385   4.442  0.1431  0.0746 -0.0087
    1DIPC   C1B 7929  19.240  17.135   5.340  0.0910 -0.1954 -0.0353
    1DIPC   D2B 7930  19.261  17.163   4.793  0.2303  0.1138 -0.0467
    1DIPC   D3B 7931  19.401  17.017   4.423 -0.0467 -0.5256  0.1471
    1DIPC   C4B 7932  19.288  16.762   4.141 -0.0407  0.2079  0.1581
    1DIPC   NC3 7933  15.319  12.295   7.516  0.2394  0.0293  0.2663
    1DIPC   PO4 7934  14.975  12.483   7.330  0.0900 -0.0921 -0.2431
    1DIPC   GL1 7935  15.014  12.725   6.929  0.3166  0.1726  0.1051
    1DIPC   GL2 7936  14.756  12.984   6.856 -0.0076  0.4274 -0.0969
    1DIPC   C1A 7937  14.721  12.604   6.549 -0.0225 -0.0060 -0.3395
    1DIPC   D2A 7938  14.823  12.297   6.361 -0.1454 -0.0950  0.1162
    1DIPC   D3A 7939  14.552  12.052   6.076 -0.0346 -0.0972 -0.2503
    1DIPC   C4A 7940  14.753  11.975   5.684  0.0383  0.1693  0.0431
    1DIPC   C1B 7941  14.996  13.103   6.555 -0.0815 -0.1115 -0.1555
    1DIPC   D2B 7942  15.172  13.342   6.141  0.1196  0.0136  0.3394
    1DIPC   D3B 7943  15.484  13.522   5.962  0.1813 -0.2010 -0.1061
    1DIPC   C4B 7944  15.607  13.337   5.633  0.5151 -0.0068  0.4533
    1DIPC   NC3 7945  22.349   1.531   7.199 -0.1676  0.0865 -0.0366
    1DIPC   PO4 7946  22.556   1.783   6.944  0.1147  0.0012  0.1257
    1DIPC   GL1 7947  22.522   1.664   6.497  0.0172 -0.2852  0.0629
    1DIPC   GL2 7948  22.481   1.955   6.418  0.2163  0.1163 -0.0342
    1DIPC   C1A 7949  22.838   1.616   6.274 -0.1427 -0.1490  0.2958
    1DIPC   D2A 7950  22.834   1.503   5.846  0.4026 -0.0361  0.0444
    1DIPC   D3A 7951  23.033   1.696   5.404 -0.0267 -0.0895  0.2150
    1DIPC   C4A 7952  23.549   1.781   5.179 -0.0017  0.1138  0.5100
    1DIPC   C1B 7953  22.792   2.096   6.133 -0.1491 -0.0414 -0.0511
    1DIPC   D2B 7954  22.919   2.405   6.429  0.0005  0.3423 -0.2085
    1DIPC   D3B 7955  23.306   2.404   6.370  0.3932 -0.4564 -0.0117
    1DIPC   C4B 7956  23.249   2.485   6.012  0.2475  0.0896  0.0270
    1DIPC   NC3 7957  15.444  10.718   7.481 -0.1645  0.0309 -0.2252
    1DIPC   PO4 7958  15.509  10.924   7.100  0.1027  0.1174  0.0279
    1DIPC   GL1 7959  15.248  11.167   6.779 -0.2621  0.3626 -0.1066
    1DIPC   GL2 7960  15.432  11.105   6.506 -0.1176 -0.1505  0.1160
    1DIPC   C1A 7961  15.008  11.373   6.306  0.1620  0.1981  0.1741
    1DIPC   D2A 7962  14.713  11.675   6.361 -0.0843  0.0595 -0.1639
    1DIPC   D3A 7963  14.356  11.605   6.178 -0.0682 -0.2721 -0.0192
    1DIPC   C4A 7964  14.226  11.683   5.792  0.1440 -0.1806 -0.0839
    1DIPC   C1B 7965  15.543  11.174   6.124  0.0455  0.0283 -0.2911
    1DIPC   D2B 7966  15.881  11.383   5.952 -0.0541 -0.0203 -0.2137
    1DIPC   D3B 7967  15.677  11.388   5.607  0.3632 -0.1875  0.2707
    1DIPC   C4B 7968  15.351  11.144   5.456 -0.0714 -0.2913 -0.2331
    1DIPC   NC3 7969  24.767   8.624   5.781  0.0469  0.0661  0.0127
    1DIPC   PO4 7970  25.145   8.761   5.931  0.3062  0.0605 -0.3438
    1DIPC   GL1 7971  25.405   8.601   5.543 -0.1565 -0.1275  0.1223
    1DIPC   GL2 7972  25.159   8.560   5.460  0.2909 -0.5137  0.1707
    1DIPC   C1A 7973  25.477   8.155   5.421  0.1643 -0.1916 -0.0248
    1DIPC   D2A 7974  25.486   7.652   5.348 -0.3203 -0.0816 -0.1750
    1DIPC   D3A 7975  25.339   7.785   4.947  0.2696 -0.2889  0.0678
    1DIPC   C4A 7976  25.069   7.747   4.621  0.1282  0.1831 -0.5083
    1DIPC   C1B 7977  24.911   8.547   5.157 -0.0868  0.0085 -0.1622
    1DIPC   D2B 7978  24.824   8.125   4.849  0.0559  0.1310  0.1652
    1DIPC   D3B 7979  24.968   8.461   4.548  0.1055  0.0517  0.3422
    1DIPC   C4B 7980  25.002   8.925   4.503  0.0366  0.0771 -0.2154
    1DIPC   NC3 7981  12.464  22.161   6.518  0.0041  0.0867  0.0453
    1DIPC   PO4 7982  12.174  22.234   6.207  0.1634 -0.1831  0.1966
    1DIPC   GL1 7983  12.395  22.259   5.870  0.1142  0.2835  0.1543
    1DIPC   GL2 7984  12.405  22.580   5.693 -0.2961 -0.0437  0.2864
    1DIPC   C1A 7985  12.225  22.240   5.396 -0.0333 -0.0424 -0.0576
    1DIPC   D2A 7986  12.205  22.426   5.035  0.1840 -0.0065  0.0867
    1DIPC   D3A 7987  12.066  22.447   4.595  0.2419  0.0476 -0.3221
    1DIPC   C4A 7988  11.664  22.223   4.591  0.0920 -0.0260  0.0045
    1DIPC   C1B 7989  12.413  22.906   5.401 -0.2121  0.0737  0.2360
    1DIPC   D2B 7990  12.307  23.285   5.063  0.0898 -0.1295  0.0223
    1DIPC   D3B 7991  12.444  22.988   4.808 -0.0134 -0.5192 -0.1245
    1DIPC   C4B 7992  12.415  22.977   4.321 -0.2154  0.0898 -0.1064
    1DIPC   NC3 7993   6.549  30.058   6.849 -0.1192  0.2979 -0.0109
    1DIPC   PO4 7994   6.955  30.269   6.976  0.0835 -0.1508 -0.0643
    1DIPC   GL1 7995   6.923  30.219   6.557 -0.1161 -0.1016 -0.1846
    1DIPC   GL2 7996   7.133  29.997   6.508  0.1196 -0.2211  0.2150
    1DIPC   C1A 7997   6.851   0.036   6.160  0.0117 -0.0637 -0.0554
    1DIPC   D2A 7998   6.928   0.026   5.763  0.0022 -0.0562  0.0798
    1DIPC   D3A 7999   6.867  30.189   5.339  0.0037 -0.3518 -0.2082
    1DIPC   C4A 8000   6.514  30.198   5.015  0.4186 -0.0840  0.0917
    1DIPC   C1B 8001   7.132  29.889   5.991 -0.1010 -0.0736  0.1322
    1DIPC   D2B 8002   6.962  29.687   5.736  0.2260  0.1661 -0.2961
    1DIPC   D3B 8003   7.287  29.875   5.460  0.0327 -0.2516 -0.0279
    1DIPC   C4B 8004   7.799  29.967   5.512 -0.1601  0.1465 -0.0835
    1DIPC   NC3 8005  20.788   3.216   6.931  0.2297 -0.0862 -0.1038
    1DIPC   PO4 8006  20.713   3.595   6.744 -0.0440  0.1853  0.1328
    1DIPC   GL1 8007  20.630   3.243   6.430 -0.1871  0.1735  0.2871
    1DIPC   GL2 8008  20.912   3.043   6.484  0.2265  0.2661  0.3075
    1DIPC   C1A 8009  20.297   3.109   6.104  0.0829 -0.0585 -0.0448
    1DIPC   D2A 8010  19.946   3.368   5.952 -0.0490 -0.0928  0.1536
    1DIPC   D3A 8011  20.123   3.041   5.666 -0.1729  0.0405 -0.0060
    1DIPC   C4A 8012  19.826   2.700   5.588  0.0144  0.0299  0.0633
    1DIPC   C1B 8013  20.745   2.879   6.157 -0.1486  0.1511  0.2471
    1DIPC   D2B 8014  20.853   2.540   5.957  0.4509 -0.3623 -0.0707
    1DIPC   D3B 8015  20.667   2.197   5.718  0.2774  0.0983  0.0901
    1DIPC   C4B 8016  20.888   1.856   5.404 -0.2540  0.2068 -0.1427
    1DIPC   NC3 8017  22.533   6.038   6.678 -0.1947 -0.0086  0.1630
    1DIPC   PO4 8018  22.993   5.792   6.606 -0.0499 -0.2424 -0.0067
    1DIPC   GL1 8019  23.052   5.756   6.248  0.1773 -0.3904  0.0495
    1DIPC   GL2 8020  23.295   5.593   6.045  0.2282  0.1047 -0.0686
    1DIPC   C1A 8021  22.839   5.726   5.873  0.3069  0.0445 -0.1002
    1DIPC   D2A 8022  22.767   5.444   5.508  0.3080 -0.1189 -0.1718
    1DIPC   D3A 8023  22.860   5.043   5.656 -0.1881  0.1041 -0.0527
    1DIPC   C4A 8024  22.622   4.601   5.461  0.0840  0.1229  0.0269
    1DIPC   C1B 8025  23.193   5.396   5.692  0.0413 -0.0256  0.1306
    1DIPC   D2B 8026  23.195   5.551   5.306 -0.0176  0.0832  0.1855
    1DIPC   D3B 8027  22.940   5.338   5.016  0.0696  0.1505 -0.1040
    1DIPC   C4B 8028  22.797   4.909   5.114  0.0237 -0.3264  0.1519
    1DIPC   NC3 8029  12.133  17.401   7.114 -0.0276 -0.1674 -0.0726
    1DIPC   PO4 8030  12.343  17.310   6.658 -0.0844  0.1620 -0.1750
    1DIPC   GL1 8031  12.200  17.324   6.327  0.0912 -0.1927  0.4348
    1DIPC   GL2 8032  12.247  17.101   5.911  0.0198 -0.1808  0.2828
    1DIPC   C1A 8033  11.971  17.543   6.102  0.2043  0.1823 -0.1793
    1DIPC   D2A 8034  11.781  17.840   5.821  0.0275 -0.5465 -0.0222
    1DIPC   D3A 8035  11.540  17.781   5.497  0.1357 -0.0572  0.2746
    1DIPC   C4A 8036  11.704  17.572   5.075 -0.1153  0.3957 -0.0185
    1DIPC   C1B 8037  12.642  17.215   5.776  0.0785 -0.0475  0.4032
    1DIPC   D2B 8038  12.909  17.095   5.457 -0.1747  0.3726  0.0073
    1DIPC   D3B 8039  12.479  16.818   5.416 -0.1503 -0.3173 -0.1444
    1DIPC   C4B 8040  12.267  16.686   5.008 -0.2729 -0.0739 -0.1333
    1DIPC   NC3 8041  28.031  30.341   7.135 -0.0768 -0.1945 -0.1715
    1DIPC   PO4 8042  28.300  30.016   7.102  0.1541  0.0933 -0.1275
    1DIPC   GL1 8043  28.288  29.945   6.686 -0.0022  0.0340  0.1160
    1DIPC   GL2 8044  28.095  29.642   6.721  0.3147 -0.3129 -0.0674
    1DIPC   C1A 8045  28.363  30.273   6.336  0.0097 -0.2762 -0.1795
    1DIPC   D2A 8046  28.337   0.131   5.861 -0.3924 -0.2174  0.0636
    1DIPC   D3A 8047  28.784   0.296   5.859 -0.3951  0.1684  0.1255
    1DIPC   C4A 8048  28.901   0.745   5.801  0.0717 -0.3210  0.0801
    1DIPC   C1B 8049  28.027  29.506   6.294  0.4340  0.1189  0.0975
    1DIPC   D2B 8050  28.038  29.871   5.965  0.0280  0.3080  0.0211
    1DIPC   D3B 8051  28.465  30.039   5.910 -0.0134  0.4298  0.0013
    1DIPC   C4B 8052  28.701  30.175   5.530 -0.0533 -0.0756 -0.0437
    1DIPC   NC3 8053  25.547  27.855   6.893  0.1929 -0.2815  0.0320
    1DIPC   PO4 8054  25.730  27.478   7.096 -0.1799  0.0919 -0.0192
    1DIPC   GL1 8055  25.695  27.079   6.892 -0.0288 -0.0629  0.0621
    1DIPC   GL2 8056  25.981  26.960   6.705  0.2177  0.2444 -0.2053
    1DIPC   C1A 8057  25.480  26.896   6.467  0.2912 -0.0984 -0.0623
    1DIPC   D2A 8058  25.463  26.725   6.111  0.1089 -0.0689 -0.1887
    1DIPC   D3A 8059  25.677  26.571   5.665 -0.3639 -0.2698  0.1011
    1DIPC   C4A 8060  25.880  27.033   5.441  0.1835 -0.1857  0.2284
    1DIPC   C1B 8061  26.140  27.310   6.507  0.4622 -0.0873 -0.1145
    1DIPC   D2B 8062  26.388  27.576   6.234 -0.0242  0.1026  0.2432
    1DIPC   D3B 8063  26.335  28.037   6.265  0.0139 -0.1184  0.0500
    1DIPC   C4B 8064  26.127  28.300   6.677 -0.2415 -0.0164  0.0849
    1DIPC   NC3 8065  21.735  23.725   6.040 -0.0483 -0.0701  0.2178
    1DIPC   PO4 8066  21.938  24.055   6.200 -0.0001  0.0790  0.2325
    1DIPC   GL1 8067  22.187  24.149   5.814  0.0886 -0.0989 -0.2189
    1DIPC   GL2 8068  22.525  24.113   5.909  0.0550  0.0689  0.0023
    1DIPC   C1A 8069  22.212  24.087   5.401 -0.1395 -0.0269  0.1880
    1DIPC   D2A 8070  22.506  24.262   5.082 -0.2326  0.1047  0.0352
    1DIPC   D3A 8071  22.424  23.913   4.825  0.2727  0.1937 -0.0293
    1DIPC   C4A 8072  22.021  23.826   4.634  0.2253 -0.3087  0.0187
    1DIPC   C1B 8073  22.711  24.153   5.536  0.0869  0.2506  0.1569
    1DIPC   D2B 8074  22.988  24.274   5.228  0.0881 -0.3129 -0.1350
    1DIPC   D3B 8075  23.025  23.959   4.939  0.1724 -0.1268 -0.0197
    1DIPC   C4B 8076  22.938  23.565   4.666  0.0342 -0.2767 -0.1072
    1DIPC   NC3 8077  24.289   3.684   6.931  0.3618  0.0044  0.0139
    1DIPC   PO4 8078  24.196   3.218   6.928 -0.0182 -0.1868 -0.1167
    1DIPC   GL1 8079  24.358   3.307   6.429  0.2082  0.1111  0.0345
    1DIPC   GL2 8080  24.478   3.556   6.478 -0.0570 -0.0376 -0.0969
    1DIPC   C1A 8081  24.448   3.275   6.014  0.3475 -0.1243 -0.0969
    1DIPC   D2A 8082  24.212   3.522   5.777  0.0605  0.0480  0.0682
    1DIPC   D3A 8083  24.499   3.826   5.554 -0.1745 -0.0972 -0.1414
    1DIPC   C4A 8084  24.967   3.818   5.503  0.0748  0.0521  0.0600
    1DIPC   C1B 8085  24.032   3.586   6.292 -0.1675  0.0479 -0.2583
    1DIPC   D2B 8086  23.729   3.608   5.969  0.0208 -0.0979 -0.2888
    1DIPC   D3B 8087  23.583   4.062   5.991 -0.1975 -0.0653 -0.2562
    1DIPC   C4B 8088  23.835   4.323   6.289 -0.0162  0.0440  0.0626
    1DIPC   NC3 8089  23.782   7.342   6.341 -0.2682  0.1708 -0.0295
    1DIPC   PO4 8090  24.175   7.129   6.388 -0.0258 -0.4192  0.0601
    1DIPC   GL1 8091  24.124   6.934   5.915 -0.0924 -0.2289  0.0532
    1DIPC   GL2 8092  24.033   7.034   5.626 -0.1077  0.1142 -0.2561
    1DIPC   C1A 8093  24.237   6.582   5.689 -0.2578  0.2157  0.0054
    1DIPC   D2A 8094  24.443   6.412   5.298 -0.2763  0.1288  0.1113
    1DIPC   D3A 8095  24.799   6.662   5.143  0.1480  0.0884 -0.1756
    1DIPC   C4A 8096  25.136   6.354   4.944 -0.0986  0.1691 -0.2634
    1DIPC   C1B 8097  24.429   6.982   5.384  0.1433  0.0344 -0.2352
    1DIPC   D2B 8098  24.697   7.102   4.967  0.0993 -0.1268  0.1769
    1DIPC   D3B 8099  24.731   7.263   4.597 -0.2047  0.4017  0.0611
    1DIPC   C4B 8100  24.538   7.242   4.271  0.0916 -0.1411 -0.0256
    1DIPC   NC3 8101  18.461  12.603   6.388  0.0315  0.0290 -0.0516
    1DIPC   PO4 8102  18.530  12.998   6.355  0.1030 -0.0218  0.2649
    1DIPC   GL1 8103  18.459  12.948   5.867 -0.1604  0.1175 -0.0806
    1DIPC   GL2 8104  18.719  13.250   5.787 -0.1887 -0.1222  0.1186
    1DIPC   C1A 8105  18.460  12.893   5.437  0.1805 -0.0933 -0.3254
    1DIPC   D2A 8106  18.531  12.748   4.975 -0.1376  0.1451 -0.1733
    1DIPC   D3A 8107  18.973  12.762   4.886 -0.1145  0.3607  0.0510
    1DIPC   C4A 8108  19.142  12.566   4.483  0.3167 -0.1482  0.0166
    1DIPC   C1B 8109  18.444  13.371   5.468 -0.0578  0.3688 -0.0087
    1DIPC   D2B 8110  18.562  13.329   4.957  0.0011  0.1228 -0.4836
    1DIPC   D3B 8111  18.503  13.173   4.676 -0.1439  0.0929 -0.0579
    1DIPC   C4B 8112  18.870  12.943   4.339  0.1020 -0.2233  0.3114
    1DIPC   NC3 8113   9.825   3.165   6.712  0.1913  0.1482  0.2291
    1DIPC   PO4 8114  10.084   3.507   6.568  0.1584  0.1666 -0.2406
    1DIPC   GL1 8115  10.034   3.710   6.118 -0.3709 -0.2303 -0.2226
    1DIPC   GL2 8116  10.050   3.777   5.764 -0.3128  0.0395  0.1678
    1DIPC   C1A 8117   9.610   3.636   5.894  0.3500  0.0895  0.4993
    1DIPC   D2A 8118   9.534   3.828   5.442  0.2100  0.0082  0.1969
    1DIPC   D3A 8119   9.327   3.765   5.128  0.0365 -0.1766 -0.2693
    1DIPC   C4A 8120   8.907   3.642   5.162  0.0902  0.2448 -0.0862
    1DIPC   C1B 8121  10.077   3.762   5.265  0.1240  0.0885  0.2196
    1DIPC   D2B 8122   9.911   3.777   4.875  0.2463 -0.0432  0.0938
    1DIPC   D3B 8123   9.781   4.114   4.971  0.2910  0.2605 -0.0701
    1DIPC   C4B 8124   9.516   4.440   4.787  0.0188  0.1011  0.1284
    1DIPC   NC3 8125   3.757  12.508   6.153 -0.3647 -0.4846 -0.1379
    1DIPC   PO4 8126   4.003  12.592   6.425  0.0582 -0.0565 -0.2055
    1DIPC   GL1 8127   4.301  12.658   6.083 -0.0673 -0.1163  0.1254
    1DIPC   GL2 8128   4.566  12.535   6.057  0.0379  0.1699  0.0562
    1DIPC   C1A 8129   4.395  12.996   5.798  0.1330 -0.1183 -0.1662
    1DIPC   D2A 8130   4.472  13.007   5.397  0.0475  0.2255  0.0170
    1DIPC   D3A 8131   4.309  12.680   5.144  0.1142 -0.0978  0.0598
    1DIPC   C4A 8132   4.358  12.391   4.793  0.1711 -0.1258  0.3080
    1DIPC   C1B 8133   4.496  12.528   5.600 -0.4503 -0.2048 -0.2207
    1DIPC   D2B 8134   4.544  12.219   5.296 -0.1585 -0.1246 -0.0595
    1DIPC   D3B 8135   4.771  12.143   4.854 -0.2377  0.2958  0.0548
    1DIPC   C4B 8136   4.928  12.472   4.553  0.3524  0.2136 -0.0263
    1DIPC   NC3 8137  25.353   2.482   7.365  0.1887  0.0180  0.0265
    1DIPC   PO4 8138  25.320   2.414   6.910 -0.3087  0.0564 -0.4206
    1DIPC   GL1 8139  25.148   2.279   6.621  0.4523 -0.2586 -0.3678
    1DIPC   GL2 8140  24.946   2.525   6.521 -0.1191  0.0558  0.2660
    1DIPC   C1A 8141  25.270   2.218   6.238  0.0921 -0.0181 -0.0244
    1DIPC   D2A 8142  25.300   2.459   5.798 -0.1483 -0.0038 -0.0196
    1DIPC   D3A 8143  25.508   2.115   5.528  0.4249  0.0776 -0.3473
    1DIPC   C4A 8144  25.923   2.210   5.232  0.2099  0.3622  0.1908
    1DIPC   C1B 8145  25.294   2.689   6.273  0.3245 -0.1598 -0.0434
    1DIPC   D2B 8146  25.585   2.797   5.954 -0.0145 -0.2278 -0.2006
    1DIPC   D3B 8147  25.720   2.621   5.475  0.0092  0.0432 -0.0345
    1DIPC   C4B 8148  25.971   2.768   5.168  0.3939 -0.1792 -0.0221
    1DIPC   NC3 8149  19.208  11.729   6.464  0.1664  0.3477  0.2294
    1DIPC   PO4 8150  19.452  12.067   6.471 -0.1112 -0.2143 -0.2508
    1DIPC   GL1 8151  19.578  12.053   6.080  0.1178 -0.2234 -0.0092
    1DIPC   GL2 8152  19.272  11.946   5.973 -0.1592  0.3041  0.0877
    1DIPC   C1A 8153  19.708  12.291   5.746  0.1039  0.1239 -0.1239
    1DIPC   D2A 8154  20.089  12.370   5.582  0.0444  0.0196  0.2288
    1DIPC   D3A 8155  19.968  12.657   5.333  0.1680 -0.1466 -0.1700
    1DIPC   C4A 8156  20.216  12.489   4.992  0.0632  0.0291 -0.0316
    1DIPC   C1B 8157  19.466  11.645   5.765  0.2614  0.0779 -0.0244
    1DIPC   D2B 8158  19.875  11.358   5.713  0.3449 -0.2959 -0.0419
    1DIPC   D3B 8159  19.801  11.142   5.259 -0.3427 -0.0966  0.0146
    1DIPC   C4B 8160  20.071  10.963   4.989  0.1127  0.1094 -0.0961
    1DIPC   NC3 8161  19.039   0.050   6.948  0.0653  0.2711  0.0289
    1DIPC   PO4 8162  19.031   0.144   6.541 -0.1713 -0.2465  0.1995
    1DIPC   GL1 8163  19.168   0.145   6.061 -0.2417 -0.4036  0.0809
    1DIPC   GL2 8164  18.946   0.386   5.903 -0.1066  0.1466  0.0473
    1DIPC   C1A 8165  19.186  30.335   5.542  0.3365  0.0129  0.2334
    1DIPC   D2A 8166  18.966  30.096   5.229  0.0621  0.0417  0.3643
    1DIPC   D3A 8167  19.319  29.747   5.220  0.2206 -0.1554 -0.0121
    1DIPC   C4A 8168  19.656  29.881   4.918 -0.2293  0.0061  0.3549
    1DIPC   C1B 8169  18.816   0.275   5.504 -0.3171  0.0049 -0.3367
    1DIPC   D2B 8170  19.021   0.386   5.185 -0.0755 -0.0843 -0.0992
    1DIPC   D3B 8171  18.803   0.170   4.888  0.3031 -0.2652  0.3691
    1DIPC   C4B 8172  18.432   0.069   4.830  0.4141  0.3457  0.0001
    1DIPC   NC3 8173  17.552  18.736   5.729 -0.0510 -0.3700 -0.2247
    1DIPC   PO4 8174  17.496  18.352   5.692  0.1392 -0.2947  0.0321
    1DIPC   GL1 8175  17.369  18.541   5.258  0.0114  0.1124 -0.2334
    1DIPC   GL2 8176  17.297  18.923   5.304 -0.1646  0.1345  0.1550
    1DIPC   C1A 8177  17.233  18.795   4.832  0.0887  0.0887 -0.1845
    1DIPC   D2A 8178  17.459  19.129   4.642 -0.1172 -0.1996  0.0501
    1DIPC   D3A 8179  17.023  19.016   4.440 -0.1236 -0.1882  0.2252
    1DIPC   C4A 8180  16.784  19.387   4.109 -0.1656  0.0327  0.3811
    1DIPC   C1B 8181  17.065  19.223   5.032 -0.0727 -0.2257 -0.0823
    1DIPC   D2B 8182  16.984  19.542   4.745 -0.2027  0.1332 -0.1524
    1DIPC   D3B 8183  17.270  19.591   4.364  0.1321  0.3791  0.2038
    1DIPC   C4B 8184  17.238  20.022   4.133 -0.3127  0.1384 -0.0128
    1DIPC   NC3 8185  19.624  19.101   5.854  0.1304 -0.0568  0.0703
    1DIPC   PO4 8186  19.359  18.876   5.488 -0.1720  0.2492 -0.3486
    1DIPC   GL1 8187  19.532  18.738   5.085  0.2121  0.2178 -0.0139
    1DIPC   GL2 8188  19.472  18.997   4.980  0.4782  0.0874  0.0278
    1DIPC   C1A 8189  19.345  18.403   4.867  0.2957 -0.2480  0.0833
    1DIPC   D2A 8190  19.429  18.029   4.678  0.0084  0.0288 -0.1088
    1DIPC   D3A 8191  19.630  18.191   4.397  0.2390  0.2764  0.1658
    1DIPC   C4A 8192  19.620  17.859   4.128 -0.0175 -0.2759  0.1896
    1DIPC   C1B 8193  19.667  19.323   5.080 -0.0371 -0.1138 -0.3416
    1DIPC   D2B 8194  19.696  19.815   5.186  0.1909  0.2849  0.4893
    1DIPC   D3B 8195  19.791  20.087   4.811 -0.0232  0.1120 -0.2083
    1DIPC   C4B 8196  20.260  20.100   4.715 -0.0954  0.0176  0.0944
    1DIPC   NC3 8197  15.918  29.052   6.821  0.3927 -0.0137  0.1912
    1DIPC   PO4 8198  16.023  29.211   6.418  0.0098 -0.4030 -0.1288
    1DIPC   GL1 8199  16.210  29.143   6.076  0.0569  0.3050  0.0532
    1DIPC   GL2 8200  16.030  28.952   5.966  0.2645 -0.1580 -0.0370
    1DIPC   C1A 8201  16.467  28.989   5.728  0.2801  0.0044  0.1600
    1DIPC   D2A 8202  16.808  29.229   5.568 -0.1405  0.0394  0.2477
    1DIPC   D3A 8203  16.804  29.387   5.198 -0.1073  0.1328 -0.0327
    1DIPC   C4A 8204  16.401  29.367   5.012  0.4767  0.4647 -0.1912
    1DIPC   C1B 8205  16.034  29.231   5.553  0.2715  0.1336  0.0750
    1DIPC   D2B 8206  16.012  29.560   5.310 -0.0400  0.2145 -0.3291
    1DIPC   D3B 8207  15.628  29.467   5.212  0.1605 -0.3322 -0.0393
    1DIPC   C4B 8208  15.493  29.662   4.798 -0.0599  0.1747 -0.0673
    1DIPC   NC3 8209  14.119  27.524   6.665  0.0513 -0.1600  0.1449
    1DIPC   PO4 8210  14.441  27.301   6.628  0.1084  0.2633 -0.0176
    1DIPC   GL1 8211  14.518  27.209   6.216 -0.0802 -0.2349 -0.0455
    1DIPC   GL2 8212  14.799  27.153   6.135  0.0176 -0.0770 -0.0049
    1DIPC   C1A 8213  14.428  27.433   5.828 -0.0229 -0.1728 -0.2828
    1DIPC   D2A 8214  14.253  27.548   5.392 -0.1475 -0.0724  0.0453
    1DIPC   D3A 8215  14.379  27.933   5.368  0.1681 -0.0432  0.0382
    1DIPC   C4A 8216  14.807  28.104   5.341  0.1832  0.1854  0.1510
    1DIPC   C1B 8217  14.834  27.145   5.740 -0.0369  0.0192 -0.0074
    1DIPC   D2B 8218  14.902  27.176   5.283  0.1169 -0.0527  0.2512
    1DIPC   D3B 8219  15.095  26.791   5.046  0.0534  0.3035 -0.0179
    1DIPC   C4B 8220  14.875  26.660   4.684  0.0262  0.0831  0.0986
    1DIPC   NC3 8221  18.402  15.507   6.230 -0.5216  0.0108  0.1395
    1DIPC   PO4 8222  18.758  15.371   6.335 -0.3705  0.0801  0.0449
    1DIPC   GL1 8223  18.491  15.131   5.930  0.0620  0.2763  0.1080
    1DIPC   GL2 8224  18.653  14.919   5.890  0.1082 -0.3922 -0.0856
    1DIPC   C1A 8225  18.088  15.078   5.827  0.1480  0.0995  0.1319
    1DIPC   D2A 8226  17.795  14.888   6.031 -0.4261  0.0183 -0.1104
    1DIPC   D3A 8227  17.857  14.433   6.023 -0.3771  0.0620  0.0500
    1DIPC   C4A 8228  18.114  14.091   6.235  0.0820 -0.2245  0.1699
    1DIPC   C1B 8229  18.427  14.951   5.433 -0.0456  0.2210  0.0496
    1DIPC   D2B 8230  18.011  15.001   5.143 -0.1181 -0.2579 -0.0224
    1DIPC   D3B 8231  17.989  15.344   5.303  0.0595 -0.2482 -0.0509
    1DIPC   C4B 8232  18.313  15.476   5.450  0.0933 -0.0893  0.2744
    1DIPC   NC3 8233  18.395  18.262   5.817  0.1261 -0.0909  0.0287
    1DIPC   PO4 8234  18.793  18.587   5.923  0.1259 -0.0419  0.2050
    1DIPC   GL1 8235  18.844  18.357   5.548 -0.1530 -0.1749 -0.0350
    1DIPC   GL2 8236  18.945  18.431   5.187  0.2398 -0.0001 -0.0422
    1DIPC   C1A 8237  18.739  17.878   5.377  0.0869 -0.3317 -0.0727
    1DIPC   D2A 8238  18.361  17.763   5.299 -0.1347  0.0353  0.0961
    1DIPC   D3A 8239  18.161  17.635   4.895  0.1671 -0.0772 -0.1835
    1DIPC   C4A 8240  18.009  17.219   4.615 -0.1579  0.0913 -0.3490
    1DIPC   C1B 8241  18.492  18.360   5.091  0.1977  0.0304  0.1083
    1DIPC   D2B 8242  18.056  18.154   5.041  0.0060 -0.2806 -0.0356
    1DIPC   D3B 8243  18.059  18.087   4.599  0.0778  0.2050 -0.2043
    1DIPC   C4B 8244  17.986  17.741   4.432  0.0240 -0.2547 -0.1828
    1DIPC   NC3 8245   2.179  25.497   6.997  0.1997  0.0149  0.0406
    1DIPC   PO4 8246   2.562  25.707   7.023 -0.0220 -0.1082 -0.1180
    1DIPC   GL1 8247   2.431  26.003   6.655  0.0392 -0.2899 -0.0093
    1DIPC   GL2 8248   2.194  25.701   6.566 -0.0253 -0.1573 -0.0757
    1DIPC   C1A 8249   2.338  26.095   6.214 -0.0887  0.2359  0.0777
    1DIPC   D2A 8250   2.296  26.010   5.881  0.2337  0.2033  0.1362
    1DIPC   D3A 8251   1.865  26.167   5.808 -0.2059 -0.2048 -0.0240
    1DIPC   C4A 8252   1.710  26.614   5.855 -0.0947  0.1452  0.1651
    1DIPC   C1B 8253   2.342  25.577   6.141  0.2477 -0.2830  0.3204
    1DIPC   D2B 8254   2.082  25.364   5.800 -0.2799 -0.0250  0.2499
    1DIPC   D3B 8255   1.726  25.320   6.073 -0.3630  0.3582 -0.0050
    1DIPC   C4B 8256   1.516  25.018   6.333 -0.0252 -0.1412 -0.2274
    1DIPC   NC3 8257   8.370   9.599   6.355  0.0287 -0.2017 -0.2010
    1DIPC   PO4 8258   8.426   9.902   6.728 -0.1271  0.1812  0.1062
    1DIPC   GL1 8259   8.631  10.123   6.238  0.1783  0.0884  0.1967
    1DIPC   GL2 8260   8.590  10.428   6.157 -0.0126 -0.3590 -0.0197
    1DIPC   C1A 8261   8.380   9.995   5.824 -0.1826  0.1728 -0.1260
    1DIPC   D2A 8262   7.859   9.944   5.886  0.0637 -0.2016  0.1710
    1DIPC   D3A 8263   7.422  10.017   6.026 -0.0669  0.0534  0.0852
    1DIPC   C4A 8264   7.210  10.355   5.857 -0.2068 -0.0346 -0.0181
    1DIPC   C1B 8265   8.578  10.612   5.773 -0.1054  0.1723 -0.0884
    1DIPC   D2B 8266   8.571  10.811   5.350  0.3039 -0.1808 -0.0492
    1DIPC   D3B 8267   8.387  10.594   4.990 -0.1404  0.4700  0.1602
    1DIPC   C4B 8268   7.954  10.576   4.953  0.0533 -0.1532 -0.0157
    1DIPC   NC3 8269  11.408  27.388   7.197  0.0503  0.0579  0.1351
    1DIPC   PO4 8270  11.562  27.473   6.795  0.0022 -0.2357  0.0157
    1DIPC   GL1 8271  11.646  27.666   6.539  0.1195  0.2002  0.0062
    1DIPC   GL2 8272  11.324  27.681   6.302  0.1321  0.0646  0.2245
    1DIPC   C1A 8273  11.839  28.031   6.291  0.3058  0.1153  0.3408
    1DIPC   D2A 8274  11.834  28.292   5.919  0.1282  0.0246 -0.0658
    1DIPC   D3A 8275  11.553  27.981   5.600 -0.1387  0.1668 -0.0804
    1DIPC   C4A 8276  11.128  27.807   5.671 -0.0477 -0.1413  0.1473
    1DIPC   C1B 8277  11.345  28.057   6.051  0.1521 -0.2167  0.1079
    1DIPC   D2B 8278  11.322  28.487   6.157  0.1348 -0.2759  0.0763
    1DIPC   D3B 8279  11.328  28.430   5.699  0.0739  0.3244  0.1454
    1DIPC   C4B 8280  11.600  28.399   5.329  0.0660 -0.0225 -0.1964
    1DIPC   NC3 8281  20.550  29.814   6.394  0.0404 -0.2106  0.1540
    1DIPC   PO4 8282  20.962  29.723   6.321 -0.1370 -0.0708  0.0168
    1DIPC   GL1 8283  20.957  29.640   5.947  0.1042 -0.0850 -0.0251
    1DIPC   GL2 8284  21.108  29.979   5.856 -0.4867  0.0415 -0.0324
    1DIPC   C1A 8285  20.702  29.323   5.674  0.0090 -0.2119 -0.0336
    1DIPC   D2A 8286  20.653  29.093   5.245 -0.1549  0.1724 -0.0962
    1DIPC   D3A 8287  21.024  29.098   5.142 -0.1680  0.0640 -0.0710
    1DIPC   C4A 8288  21.482  29.043   5.060  0.0191  0.1830 -0.1238
    1DIPC   C1B 8289  20.671  29.892   5.504 -0.0170 -0.1016 -0.0392
    1DIPC   D2B 8290  20.482  29.606   5.309 -0.2074  0.0799  0.2840
    1DIPC   D3B 8291  20.314  29.671   4.974  0.3020 -0.0358  0.1503
    1DIPC   C4B 8292  20.137  30.110   4.785  0.0281  0.0775 -0.1254
    1DIPC   NC3 8293  19.328  10.303   6.556 -0.2655 -0.0079 -0.1740
    1DIPC   PO4 8294  19.077  10.404   6.234 -0.2254  0.1737  0.1540
    1DIPC   GL1 8295  19.200  10.444   5.848  0.0034 -0.3605 -0.1114
    1DIPC   GL2 8296  19.009  10.244   5.692 -0.0628  0.1033 -0.2255
    1DIPC   C1A 8297  19.142  10.811   5.696 -0.1380  0.2820 -0.1879
    1DIPC   D2A 8298  18.916  11.132   5.587 -0.0973  0.3115  0.0561
    1DIPC   D3A 8299  19.109  11.189   5.151  0.1241 -0.2893  0.0017
    1DIPC   C4A 8300  19.421  11.171   4.948 -0.3016 -0.1619  0.2126
    1DIPC   C1B 8301  19.248  10.274   5.329  0.3071  0.0882  0.0405
    1DIPC   D2B 8302  19.444  10.278   4.889  0.0055 -0.1307 -0.1270
    1DIPC   D3B 8303  19.729  10.049   5.228  0.0458  0.1942 -0.1435
    1DIPC   C4B 8304  20.134  10.147   5.483 -0.3200 -0.2474  0.2026
    1DIPC   NC3 8305   2.212  28.843   7.529  0.2934  0.0237 -0.1135
    1DIPC   PO4 8306   2.455  28.604   7.144 -0.0878  0.1177 -0.1796
    1DIPC   GL1 8307   2.653  28.765   6.768 -0.1084  0.1192  0.2340
    1DIPC   GL2 8308   2.538  29.056   6.596  0.0314 -0.3859  0.0205
    1DIPC   C1A 8309   2.623  28.580   6.257 -0.5370  0.1380  0.2069
    1DIPC   D2A 8310   2.676  28.393   5.819 -0.0968 -0.2072  0.1916
    1DIPC   D3A 8311   2.293  28.094   5.654 -0.0643  0.0569 -0.0741
    1DIPC   C4A 8312   2.400  27.833   5.368 -0.2414  0.4060 -0.0939
    1DIPC   C1B 8313   2.555  29.051   6.066  0.0024 -0.1827 -0.1717
    1DIPC   D2B 8314   2.452  29.038   5.528  0.1928 -0.1297 -0.1883
    1DIPC   D3B 8315   2.720  28.681   5.408 -0.0995  0.2742  0.0728
    1DIPC   C4B 8316   2.598  28.360   5.299  0.3721  0.2022 -0.3082
    1DIPC   NC3 8317  29.867   1.720   7.317 -0.3933  0.2044 -0.0157
    1DIPC   PO4 8318  29.741   1.884   6.833  0.0383  0.0332 -0.2345
    1DIPC   GL1 8319  30.058   1.958   6.556 -0.1254 -0.1978 -0.0519
    1DIPC   GL2 8320   0.008   1.997   6.553  0.0779 -0.2426 -0.1391
    1DIPC   C1A 8321  30.145   1.709   6.117 -0.0280 -0.1384 -0.2984
    1DIPC   D2A 8322  29.925   1.592   5.698  0.0116 -0.1461  0.2528
    1DIPC   D3A 8323  29.445   1.602   5.705 -0.4184 -0.1580 -0.0423
    1DIPC   C4A 8324  29.309   1.708   5.306  0.0036  0.3307 -0.2572
    1DIPC   C1B 8325   0.251   1.873   6.135  0.1781  0.1585 -0.3575
    1DIPC   D2B 8326   0.200   1.555   5.789 -0.2153 -0.1580  0.0020
    1DIPC   D3B 8327   0.444   1.696   5.453  0.0823  0.0566 -0.2519
    1DIPC   C4B 8328   0.345   1.799   5.127  0.1453  0.1004 -0.0535
    1DIPC   NC3 8329  15.172  16.921   6.894 -0.1259  0.1912 -0.1220
    1DIPC   PO4 8330  14.993  16.569   6.637 -0.2506  0.3290  0.1118
    1DIPC   GL1 8331  15.038  16.510   6.210 -0.1169  0.2368 -0.0167
    1DIPC   GL2 8332  15.042  16.214   6.227  0.1315  0.0451 -0.1450
    1DIPC   C1A 8333  15.318  16.505   5.808  0.0986  0.1804  0.2146
    1DIPC   D2A 8334  15.778  16.401   5.795 -0.0951 -0.2504 -0.1476
    1DIPC   D3A 8335  15.926  15.942   5.817 -0.1330 -0.1720  0.1053
    1DIPC   C4A 8336  16.279  15.786   5.538 -0.0470  0.1014 -0.0064
    1DIPC   C1B 8337  14.857  16.089   5.848 -0.0571 -0.1757 -0.1898
    1DIPC   D2B 8338  14.758  15.725   5.718 -0.0062  0.0252 -0.0725
    1DIPC   D3B 8339  14.543  15.557   5.304 -0.1389  0.1468  0.0625
    1DIPC   C4B 8340  14.125  15.314   5.084 -0.0365 -0.0609 -0.3806
    1DIPC   NC3 8341  13.509   6.622   6.428  0.0389 -0.1950  0.1986
    1DIPC   PO4 8342  13.236   7.018   6.423 -0.1404 -0.1276  0.3063
    1DIPC   GL1 8343  13.281   6.820   5.998  0.1196 -0.2844 -0.0468
    1DIPC   GL2 8344  12.903   6.776   5.925 -0.0046  0.1036 -0.1493
    1DIPC   C1A 8345  13.390   6.860   5.531  0.0445  0.0709 -0.3386
    1DIPC   D2A 8346  13.545   6.711   5.128 -0.3269  0.1442  0.0906
    1DIPC   D3A 8347  13.650   6.462   4.816 -0.0466  0.0141  0.0373
    1DIPC   C4A 8348  13.368   6.179   4.412  0.1649  0.2040  0.2487
    1DIPC   C1B 8349  12.633   6.618   5.597 -0.1417  0.0009 -0.0655
    1DIPC   D2B 8350  12.220   6.500   5.396 -0.0571  0.0146 -0.2022
    1DIPC   D3B 8351  12.268   6.917   5.252  0.1828  0.2690 -0.0345
    1DIPC   C4B 8352  11.808   7.099   5.194  0.2839  0.3211 -0.2502
    1DIPC   NC3 8353  11.261  20.937   5.641 -0.0113 -0.1702  0.1761
    1DIPC   PO4 8354  10.867  21.232   5.589 -0.0962  0.1329 -0.1386
    1DIPC   GL1 8355  10.853  21.103   5.193  0.1703 -0.0710  0.1001
    1DIPC   GL2 8356  10.534  21.029   5.086  0.0467 -0.1036  0.0227
    1DIPC   C1A 8357  10.971  21.009   4.769  0.1030 -0.0524 -0.2073
    1DIPC   D2A 8358  11.095  21.127   4.419  0.2173 -0.1504 -0.1570
    1DIPC   D3A 8359  11.291  20.865   4.102  0.1328 -0.0123 -0.0236
    1DIPC   C4A 8360  11.476  20.396   4.249 -0.1755 -0.0009  0.2030
    1DIPC   C1B 8361  10.574  21.270   4.759  0.2094  0.2946 -0.3100
    1DIPC   D2B 8362  10.811  21.589   4.520  0.0783  0.0688 -0.1405
    1DIPC   D3B 8363  11.164  21.615   4.255 -0.1057  0.0939 -0.2357
    1DIPC   C4B 8364  11.604  21.673   4.445  0.0427 -0.0903 -0.0186
    1DIPC   NC3 8365   5.315   5.529   6.834  0.0128  0.0464  0.1399
    1DIPC   PO4 8366   4.987   5.681   6.553  0.1293  0.0275  0.2447
    1DIPC   GL1 8367   4.881   5.513   6.192  0.4750  0.0146  0.1974
    1DIPC   GL2 8368   5.063   5.429   6.103 -0.0175  0.2818  0.1750
    1DIPC   C1A 8369   4.769   5.212   5.768 -0.0479  0.0213 -0.2173
    1DIPC   D2A 8370   4.476   5.051   5.463  0.1169 -0.1168  0.3618
    1DIPC   D3A 8371   4.584   4.668   5.743 -0.1837  0.2333  0.0939
    1DIPC   C4A 8372   4.467   4.211   5.470  0.2352 -0.1213  0.1405
    1DIPC   C1B 8373   5.246   5.269   5.806  0.0146 -0.0569  0.0449
    1DIPC   D2B 8374   5.359   4.849   5.605 -0.2273  0.0942  0.1508
    1DIPC   D3B 8375   5.096   4.772   5.394 -0.1155  0.0975 -0.1557
    1DIPC   C4B 8376   5.081   5.212   5.247  0.0894 -0.0968 -0.0767
    1DIPC   NC3 8377  10.820  15.673   6.612  0.1193 -0.0357  0.0678
    1DIPC   PO4 8378  10.511  15.607   6.403  0.1546  0.2377 -0.2566
    1DIPC   GL1 8379  10.644  15.667   6.094  0.1474  0.1698  0.1221
    1DIPC   GL2 8380  10.354  15.911   5.949  0.0203  0.3690  0.0744
    1DIPC   C1A 8381  10.947  15.598   5.828 -0.1407  0.0145 -0.2115
    1DIPC   D2A 8382  11.199  15.746   5.521  0.1825  0.2244 -0.3514
    1DIPC   D3A 8383  11.480  16.025   5.344  0.0021  0.0498 -0.0521
    1DIPC   C4A 8384  11.701  16.093   4.887  0.0173 -0.3095 -0.0627
    1DIPC   C1B 8385  10.322  16.231   5.643  0.2557 -0.3230  0.2192
    1DIPC   D2B 8386  10.557  16.459   5.351  0.1594 -0.0769 -0.0184
    1DIPC   D3B 8387  10.190  16.643   5.036  0.0117  0.0377  0.2031
    1DIPC   C4B 8388   9.721  16.634   5.051  0.3690  0.0215 -0.2900
    1DIPC   NC3 8389  17.906   0.215   6.342 -0.2111  0.1293  0.0700
    1DIPC   PO4 8390  18.273  30.228   6.456  0.0584 -0.0824  0.4311
    1DIPC   GL1 8391  18.324  30.046   6.058 -0.0399 -0.3965  0.1645
    1DIPC   GL2 8392  18.076  29.767   6.037  0.0904  0.0248  0.1180
    1DIPC   C1A 8393  18.638  29.658   5.966  0.4384 -0.0784 -0.0858
    1DIPC   D2A 8394  18.597  29.268   5.695 -0.0660  0.1921  0.2750
    1DIPC   D3A 8395  18.525  28.958   5.341  0.1048 -0.0706 -0.1705
    1DIPC   C4A 8396  18.463  29.046   4.846  0.1878  0.0207 -0.0382
    1DIPC   C1B 8397  18.188  29.712   5.611  0.2527  0.0739  0.0573
    1DIPC   D2B 8398  18.237  29.454   5.140 -0.0539  0.3124  0.1802
    1DIPC   D3B 8399  18.660  29.556   5.259  0.0624  0.2370  0.0487
    1DIPC   C4B 8400  18.992  29.315   5.178  0.1434 -0.2828  0.2211
    1DIPC   NC3 8401  12.435  11.384   6.863 -0.2806  0.1963  0.1646
    1DIPC   PO4 8402  12.275  11.038   6.815 -0.0037  0.0429  0.1361
    1DIPC   GL1 8403  12.580  11.133   6.494 -0.2096  0.2235 -0.0605
    1DIPC   GL2 8404  12.443  11.470   6.386 -0.0578  0.3344 -0.0729
    1DIPC   C1A 8405  12.859  11.041   6.172  0.1740 -0.1128  0.1901
    1DIPC   D2A 8406  13.130  10.931   5.781 -0.0485  0.0929 -0.3854
    1DIPC   D3A 8407  13.516  10.754   5.476  0.0210  0.0389 -0.1443
    1DIPC   C4A 8408  13.931  10.913   5.531 -0.1498  0.0567  0.2586
    1DIPC   C1B 8409  12.819  11.547   6.274 -0.1880  0.1850  0.3605
    1DIPC   D2B 8410  13.183  11.575   6.046  0.3797  0.0241 -0.2538
    1DIPC   D3B 8411  13.018  11.998   5.910  0.0778 -0.1057 -0.0946
    1DIPC   C4B 8412  13.037  12.270   6.085  0.0112  0.4907  0.2937
    1DIPC   NC3 8413  14.253  20.992   6.172 -0.2478  0.0123 -0.2648
    1DIPC   PO4 8414  13.961  21.247   5.965 -0.5497 -0.0364 -0.0215
    1DIPC   GL1 8415  14.026  21.287   5.537 -0.1695 -0.2523 -0.1930
    1DIPC   GL2 8416  14.374  21.288   5.598  0.3070  0.1930 -0.1749
    1DIPC   C1A 8417  14.237  21.444   5.103 -0.0196  0.1633 -0.2544
    1DIPC   D2A 8418  14.596  21.687   4.829 -0.1004 -0.6373  0.1597
    1DIPC   D3A 8419  14.925  21.516   4.591 -0.0784  0.0462 -0.2823
    1DIPC   C4A 8420  14.778  21.574   4.110  0.1305  0.2449 -0.2782
    1DIPC   C1B 8421  14.640  21.027   5.353 -0.2147  0.1092  0.1700
    1DIPC   D2B 8422  14.624  21.174   4.874  0.1154 -0.0757 -0.0476
    1DIPC   D3B 8423  14.641  20.972   4.492 -0.1014  0.0569 -0.2584
    1DIPC   C4B 8424  14.568  21.113   4.088 -0.2082  0.2382 -0.1180
    1DIPC   NC3 8425  10.085  26.132   6.626  0.0448 -0.2597 -0.3084
    1DIPC   PO4 8426  10.066  26.357   6.266 -0.1475 -0.0537 -0.4175
    1DIPC   GL1 8427  10.069  26.411   5.792  0.0874  0.0516  0.3238
    1DIPC   GL2 8428  10.255  26.503   5.633  0.1038  0.0080 -0.2535
    1DIPC   C1A 8429  10.144  26.117   5.436  0.3176 -0.0476  0.0389
    1DIPC   D2A 8430  10.439  26.019   5.206 -0.0762  0.3090 -0.1725
    1DIPC   D3A 8431  10.481  25.646   5.199 -0.2171  0.1898  0.1044
    1DIPC   C4A 8432  10.772  25.449   5.225 -0.1070  0.0759 -0.1568
    1DIPC   C1B 8433  10.428  26.527   5.182 -0.0212  0.0791  0.0904
    1DIPC   D2B 8434  10.418  26.420   4.773  0.1428  0.0310  0.0643
    1DIPC   D3B 8435  10.793  26.321   4.876  0.1851 -0.1087  0.1427
    1DIPC   C4B 8436  10.837  26.098   4.464  0.0370 -0.2239  0.2027
    1DIPC   NC3 8437  24.352   1.436   7.359 -0.0984  0.1297 -0.3174
    1DIPC   PO4 8438  24.253   1.940   7.194 -0.1508  0.0590  0.0640
    1DIPC   GL1 8439  24.246   2.078   6.768  0.2656  0.2825 -0.1194
    1DIPC   GL2 8440  24.136   1.787   6.544 -0.1115  0.1464  0.3066
    1DIPC   C1A 8441  24.465   2.402   6.468 -0.0037  0.3374 -0.0314
    1DIPC   D2A 8442  24.643   2.348   6.096  0.2611 -0.0743  0.2649
    1DIPC   D3A 8443  24.785   1.926   6.044 -0.0109  0.0794 -0.0114
    1DIPC   C4A 8444  25.164   1.834   5.780 -0.0454 -0.0705 -0.0843
    1DIPC   C1B 8445  24.419   1.712   6.213  0.0868 -0.1046  0.0888
    1DIPC   D2B 8446  24.704   1.375   6.185 -0.1136 -0.3124 -0.1698
    1DIPC   D3B 8447  24.652   1.001   6.006  0.0858  0.2080  0.0794
    1DIPC   C4B 8448  24.908   1.072   5.689  0.0058 -0.0118  0.0143
    1DIPC   NC3 8449  12.634   2.002   6.395 -0.1826 -0.0793  0.3760
    1DIPC   PO4 8450  12.945   2.236   6.563 -0.0595 -0.1189  0.1576
    1DIPC   GL1 8451  12.994   2.555   6.213  0.0090  0.2396 -0.0670
    1DIPC   GL2 8452  13.329   2.540   5.998  0.0617 -0.0123  0.0891
    1DIPC   C1A 8453  12.953   2.790   5.880 -0.1078  0.4243  0.0005
    1DIPC   D2A 8454  12.912   2.687   5.400 -0.2223  0.2148 -0.0912
    1DIPC   D3A 8455  13.154   2.522   5.185  0.0786  0.1145  0.1005
    1DIPC   C4A 8456  13.106   2.090   4.992 -0.0418  0.0179 -0.3618
    1DIPC   C1B 8457  13.402   2.652   5.576  0.0881  0.5420  0.0122
    1DIPC   D2B 8458  13.336   2.976   5.288  0.2596 -0.1516  0.3250
    1DIPC   D3B 8459  13.647   2.648   5.036 -0.0349  0.0041  0.0070
    1DIPC   C4B 8460  13.818   2.749   4.709 -0.2241 -0.1331  0.0598
    1DIPC   NC3 8461  14.069  23.755   6.450  0.2740  0.0802 -0.0436
    1DIPC   PO4 8462  14.307  24.047   6.318  0.0339 -0.3726  0.0233
    1DIPC   GL1 8463  14.235  24.004   5.914  0.1385 -0.0221  0.1816
    1DIPC   GL2 8464  14.264  24.292   5.731 -0.1052  0.1600 -0.1638
    1DIPC   C1A 8465  14.561  23.836   5.576  0.0666 -0.1880  0.0013
    1DIPC   D2A 8466  14.889  23.956   5.174 -0.3170 -0.3709 -0.1550
    1DIPC   D3A 8467  14.473  23.735   5.038 -0.0748  0.1297 -0.1479
    1DIPC   C4A 8468  14.121  23.802   5.006 -0.0115  0.0658  0.1555
    1DIPC   C1B 8469  14.343  24.185   5.288 -0.0664 -0.0654 -0.1739
    1DIPC   D2B 8470  14.352  24.258   4.902 -0.1424  0.0171  0.1238
    1DIPC   D3B 8471  14.476  24.626   4.968  0.3729  0.0480  0.1067
    1DIPC   C4B 8472  14.254  24.923   5.106  0.2143 -0.0088  0.0904
    1DIPC   NC3 8473   2.154   8.639   6.961 -0.1004  0.3015  0.1429
    1DIPC   PO4 8474   1.771   8.519   6.807  0.0756 -0.2419  0.1418
    1DIPC   GL1 8475   1.841   8.866   6.449  0.0375 -0.0750  0.3077
    1DIPC   GL2 8476   1.531   8.807   6.392 -0.1133  0.1104  0.2413
    1DIPC   C1A 8477   1.881   9.194   6.121 -0.1612  0.2331  0.2673
    1DIPC   D2A 8478   1.713   9.432   5.865  0.2358  0.0192 -0.2656
    1DIPC   D3A 8479   1.964   9.380   5.482  0.2515 -0.1923  0.0625
    1DIPC   C4A 8480   2.413   9.365   5.361 -0.0774  0.1085 -0.0888
    1DIPC   C1B 8481   1.563   8.923   5.861 -0.2102 -0.0508 -0.0194
    1DIPC   D2B 8482   1.873   8.875   5.451  0.1399  0.0599 -0.1683
    1DIPC   D3B 8483   1.846   8.541   5.170  0.0077  0.0803 -0.1431
    1DIPC   C4B 8484   2.055   8.523   4.756 -0.1430  0.2246 -0.1064
    1DIPC   NC3 8485   5.033   6.263   6.730 -0.1185 -0.1845 -0.1554
    1DIPC   PO4 8486   5.472   6.040   6.809  0.0060 -0.2924  0.3302
    1DIPC   GL1 8487   5.396   5.875   6.292  0.2059  0.0077  0.1183
    1DIPC   GL2 8488   5.119   5.945   6.061  0.2213 -0.0881  0.1015
    1DIPC   C1A 8489   5.507   5.722   5.909  0.2693 -0.3157 -0.0083
    1DIPC   D2A 8490   5.620   5.458   5.566 -0.0469  0.3077 -0.1653
    1DIPC   D3A 8491   5.640   5.195   5.282 -0.1908 -0.2162  0.3179
    1DIPC   C4A 8492   5.942   5.079   4.972  0.2057 -0.1198 -0.0843
    1DIPC   C1B 8493   5.232   6.171   5.699 -0.0270  0.1066 -0.1179
    1DIPC   D2B 8494   5.355   6.596   5.650  0.2346  0.0059  0.1956
    1DIPC   D3B 8495   5.312   6.413   5.300 -0.1993 -0.0016 -0.3422
    1DIPC   C4B 8496   5.642   6.378   5.114  0.3091  0.1104 -0.3589
    1DIPC   NC3 8497   9.767   9.304   6.777 -0.0907 -0.2638  0.0799
    1DIPC   PO4 8498   9.846   8.885   6.702 -0.2626 -0.1120 -0.2186
    1DIPC   GL1 8499  10.028   8.902   6.343  0.1504 -0.1017 -0.1277
    1DIPC   GL2 8500   9.926   9.101   6.191 -0.0705 -0.0358 -0.2205
    1DIPC   C1A 8501  10.278   8.719   6.053 -0.0458 -0.2246  0.5470
    1DIPC   D2A 8502  10.567   8.446   5.788 -0.4988 -0.0431  0.3240
    1DIPC   D3A 8503  10.575   8.723   5.525  0.2510  0.1360 -0.2085
    1DIPC   C4A 8504  10.637   8.691   5.156  0.0329 -0.1027 -0.1179
    1DIPC   C1B 8505  10.242   9.186   6.045  0.0533 -0.0169  0.1103
    1DIPC   D2B 8506  10.310   9.219   5.649 -0.2330 -0.2843  0.1635
    1DIPC   D3B 8507  10.256   9.585   5.471 -0.1461 -0.1335 -0.0791
    1DIPC   C4B 8508  10.101   9.692   5.076  0.0403  0.1185  0.1994
    1DIPC   NC3 8509  10.756  18.917   5.918  0.3708 -0.0840 -0.0092
    1DIPC   PO4 8510  10.994  19.303   5.842 -0.2567  0.4813  0.0214
    1DIPC   GL1 8511  10.894  19.140   5.472 -0.1881  0.3345  0.1070
    1DIPC   GL2 8512  10.568  19.124   5.503 -0.0993  0.3544  0.0097
    1DIPC   C1A 8513  10.679  19.059   5.052 -0.0633 -0.0046  0.2765
    1DIPC   D2A 8514  10.553  19.078   4.701 -0.0560  0.1957  0.0994
    1DIPC   D3A 8515  10.345  19.440   4.446  0.2752  0.0316 -0.1456
    1DIPC   C4A 8516  10.501  19.439   4.026 -0.2321  0.3455  0.0773
    1DIPC   C1B 8517  10.045  19.254   5.500  0.3747 -0.2339  0.1969
    1DIPC   D2B 8518   9.618  19.194   5.458  0.2511 -0.0790 -0.2644
    1DIPC   D3B 8519   9.748  18.993   5.102  0.1409  0.0742 -0.1998
    1DIPC   C4B 8520  10.186  18.894   5.012 -0.1511 -0.1314  0.1727
    1DIPC   NC3 8521   5.808  15.893   6.373  0.0186 -0.2054 -0.7179
    1DIPC   PO4 8522   5.630  16.038   6.036 -0.1139  0.2090 -0.3131
    1DIPC   GL1 8523   5.618  16.389   5.752  0.0390 -0.0519 -0.1110
    1DIPC   GL2 8524   5.385  16.607   5.823  0.0449  0.2977 -0.2209
    1DIPC   C1A 8525   5.915  16.622   5.568  0.1248  0.2203 -0.1420
    1DIPC   D2A 8526   6.113  16.926   5.375  0.1035 -0.3491  0.1758
    1DIPC   D3A 8527   6.131  16.651   5.046  0.2404 -0.1968 -0.2625
    1DIPC   C4A 8528   5.795  16.351   4.998 -0.0516 -0.1524 -0.0166
    1DIPC   C1B 8529   5.397  16.564   5.324 -0.2692 -0.1189  0.3426
    1DIPC   D2B 8530   5.319  16.219   5.044  0.1661 -0.2397  0.2426
    1DIPC   D3B 8531   5.432  15.845   4.925  0.1513 -0.1860  0.0325
    1DIPC   C4B 8532   5.877  15.765   4.978 -0.0878 -0.1035  0.0993
    1DIPC   NC3 8533  22.735  20.072   5.969  0.1250 -0.0140 -0.1370
    1DIPC   PO4 8534  22.773  19.975   5.579 -0.1811  0.0273  0.0642
    1DIPC   GL1 8535  23.141  19.676   5.352 -0.1001 -0.1662  0.1931
    1DIPC   GL2 8536  23.213  19.867   5.147  0.0632  0.1610 -0.2083
    1DIPC   C1A 8537  23.602  19.535   5.144  0.2201  0.1932  0.2664
    1DIPC   D2A 8538  24.047  19.386   4.936 -0.2440  0.1193  0.2337
    1DIPC   D3A 8539  24.445  19.506   4.745  0.0205 -0.0889  0.3926
    1DIPC   C4A 8540  24.212  19.827   4.530 -0.1292  0.0507  0.4262
    1DIPC   C1B 8541  23.184  19.628   4.795  0.3146 -0.1546  0.3608
    1DIPC   D2B 8542  23.150  19.402   4.428  0.2093 -0.1093 -0.1013
    1DIPC   D3B 8543  23.007  19.110   4.722 -0.0481  0.0875  0.1277
    1DIPC   C4B 8544  23.342  19.105   4.964  0.0567 -0.0219 -0.0280
    1DIPC   NC3 8545   2.766   9.915   7.146 -0.1073  0.0350 -0.0817
    1DIPC   PO4 8546   2.959   9.717   6.826 -0.4644 -0.0487  0.3993
    1DIPC   GL1 8547   2.774   9.697   6.465 -0.0536  0.0615 -0.0396
    1DIPC   GL2 8548   2.857   9.846   6.078  0.1325 -0.1984  0.0653
    1DIPC   C1A 8549   2.447   9.679   6.327  0.0118  0.1837  0.1207
    1DIPC   D2A 8550   2.124   9.497   6.420 -0.0261  0.0768  0.1012
    1DIPC   D3A 8551   2.216   9.514   5.929  0.0580 -0.0426  0.0266
    1DIPC   C4A 8552   2.288   9.109   5.743 -0.1398  0.1062  0.0459
    1DIPC   C1B 8553   2.426   9.955   5.948  0.2535  0.0237 -0.0111
    1DIPC   D2B 8554   2.256   9.994   5.496 -0.1107  0.1360  0.0977
    1DIPC   D3B 8555   1.964  10.331   5.425 -0.1456  0.0116 -0.4546
    1DIPC   C4B 8556   1.987  10.816   5.218 -0.0311  0.1748  0.3583
    1DIPC   NC3 8557   8.350   0.965   6.978 -0.0815  0.1111 -0.1545
    1DIPC   PO4 8558   8.076   1.221   6.765 -0.1673  0.4245  0.1478
    1DIPC   GL1 8559   8.059   1.385   6.307 -0.1503  0.0820 -0.1334
    1DIPC   GL2 8560   8.333   1.603   6.083  0.0753  0.0322 -0.2940
    1DIPC   C1A 8561   7.814   1.314   6.011  0.1207  0.1874 -0.2609
    1DIPC   D2A 8562   7.471   0.918   5.900  0.1045  0.2060  0.3309
    1DIPC   D3A 8563   7.135   0.848   6.099 -0.0675  0.1299 -0.0804
    1DIPC   C4A 8564   6.671   0.932   6.032 -0.0454 -0.3635 -0.1533
    1DIPC   C1B 8565   8.040   1.679   5.717  0.0905  0.0004  0.1649
    1DIPC   D2B 8566   7.736   1.633   5.497  0.0920  0.0526 -0.2477
    1DIPC   D3B 8567   7.852   1.157   5.461  0.1382  0.0363 -0.2496
    1DIPC   C4B 8568   7.699   1.013   5.069 -0.2229  0.1121 -0.1530
    1DIPC   NC3 8569  10.385  22.463   6.149 -0.0858 -0.2935 -0.0621
    1DIPC   PO4 8570  10.644  22.836   5.989 -0.1462 -0.1763  0.2989
    1DIPC   GL1 8571  10.616  23.253   5.737  0.2216 -0.1389 -0.1445
    1DIPC   GL2 8572  10.488  23.462   5.720  0.1313 -0.1447  0.1092
    1DIPC   C1A 8573  10.768  23.342   5.310 -0.0486  0.1008  0.0210
    1DIPC   D2A 8574  10.690  23.384   4.838  0.1119  0.2248 -0.0067
    1DIPC   D3A 8575  10.671  23.671   4.372  0.1788  0.3198  0.0322
    1DIPC   C4A 8576  10.745  23.559   3.993 -0.2566 -0.2451 -0.1161
    1DIPC   C1B 8577  10.261  23.291   5.362 -0.1095 -0.0104  0.1181
    1DIPC   D2B 8578  10.357  23.016   5.083  0.4000  0.0728 -0.0655
    1DIPC   D3B 8579  10.646  22.893   4.692 -0.0844 -0.0585 -0.0007
    1DIPC   C4B 8580  11.050  22.812   4.596  0.2041 -0.3613 -0.1776
    1DIPC   NC3 8581  14.838   5.170   6.238 -0.0633 -0.2291  0.3097
    1DIPC   PO4 8582  14.391   5.061   6.202  0.2625  0.0793  0.1036
    1DIPC   GL1 8583  14.207   4.868   5.828 -0.1342  0.0906  0.1155
    1DIPC   GL2 8584  13.879   5.018   5.721  0.1779  0.0937  0.0580
    1DIPC   C1A 8585  14.349   4.862   5.379  0.0274 -0.1593  0.2243
    1DIPC   D2A 8586  14.484   4.788   4.986 -0.3828 -0.3180  0.3043
    1DIPC   D3A 8587  14.112   4.896   4.762  0.0683  0.0990 -0.3115
    1DIPC   C4A 8588  14.166   4.927   4.360  0.0739 -0.0475  0.0298
    1DIPC   C1B 8589  13.848   4.677   5.399  0.0857  0.0407 -0.0459
    1DIPC   D2B 8590  13.591   4.429   5.066  0.0583  0.2239 -0.2084
    1DIPC   D3B 8591  13.560   4.032   4.698 -0.0907 -0.1263 -0.1445
    1DIPC   C4B 8592  13.219   4.148   4.478 -0.1976 -0.3239  0.3839
    1DIPC   NC3 8593  13.668  21.602   5.719 -0.0749 -0.0996  0.0812
    1DIPC   PO4 8594  13.762  21.925   5.920 -0.1939 -0.1292  0.0712
    1DIPC   GL1 8595  14.203  21.772   5.632  0.1559 -0.1049  0.1680
    1DIPC   GL2 8596  14.049  21.881   5.375  0.0071 -0.0296 -0.2497
    1DIPC   C1A 8597  14.565  21.764   5.399  0.1696  0.3192 -0.3291
    1DIPC   D2A 8598  14.915  21.442   5.128 -0.1609 -0.1447 -0.0483
    1DIPC   D3A 8599  15.231  21.778   5.111  0.2567 -0.0453 -0.1757
    1DIPC   C4A 8600  15.125  21.971   4.711 -0.1036 -0.2845  0.2333
    1DIPC   C1B 8601  14.320  22.063   5.116 -0.2004 -0.0736 -0.0351
    1DIPC   D2B 8602  14.194  22.346   4.702  0.0674  0.2102  0.0168
    1DIPC   D3B 8603  14.378  21.985   4.402  0.1562 -0.0155 -0.0836
    1DIPC   C4B 8604  14.833  21.979   4.287  0.0574 -0.2813 -0.2274
    1DIPC   NC3 8605  14.425  22.045   5.991  0.2135  0.0201  0.0288
    1DIPC   PO4 8606  14.860  22.079   5.864 -0.0135  0.1413  0.0652
    1DIPC   GL1 8607  15.099  22.167   5.392  0.0337 -0.1098 -0.0972
    1DIPC   GL2 8608  14.848  22.058   5.114  0.1285  0.0301 -0.0144
    1DIPC   C1A 8609  15.119  22.434   5.035  0.1562  0.2684  0.0588
    1DIPC   D2A 8610  15.025  22.750   4.756 -0.2326  0.1010  0.3812
    1DIPC   D3A 8611  15.019  22.469   4.363 -0.0365 -0.0651 -0.1990
    1DIPC   C4A 8612  15.395  22.230   4.395 -0.0268 -0.2942 -0.2621
    1DIPC   C1B 8613  14.696  22.263   4.735  0.0267  0.1092  0.1751
    1DIPC   D2B 8614  14.563  22.735   4.500  0.2477 -0.1246  0.1206
    1DIPC   D3B 8615  14.763  22.993   4.165  0.0222  0.1242 -0.0353
    1DIPC   C4B 8616  15.095  23.041   4.206  0.0517 -0.2859 -0.0554
    1DIPC   NC3 8617  11.286  29.435   7.023  0.1056 -0.1006 -0.0748
    1DIPC   PO4 8618  11.148  29.593   6.680  0.1638 -0.1211  0.1280
    1DIPC   GL1 8619  11.004  29.711   6.287  0.2000 -0.0235 -0.2038
    1DIPC   GL2 8620  11.124  29.534   6.016  0.3634  0.2989  0.3954
    1DIPC   C1A 8621  10.731  29.745   5.850 -0.0720 -0.1168 -0.2285
    1DIPC   D2A 8622  10.407  30.153   5.699  0.2299 -0.3486  0.1068
    1DIPC   D3A 8623  10.435   0.025   5.329 -0.2719 -0.1671 -0.0432
    1DIPC   C4A 8624  10.563  30.216   4.910  0.1694 -0.1872 -0.0661
    1DIPC   C1B 8625  11.314  29.253   5.769  0.0607 -0.2005 -0.1781
    1DIPC   D2B 8626  11.434  28.886   5.475 -0.1435 -0.0440  0.0209
    1DIPC   D3B 8627  11.626  28.899   5.130 -0.0118 -0.0434  0.2686
    1DIPC   C4B 8628  11.783  29.371   5.047  0.0277  0.1454  0.1062
    1DIPC   NC3 8629  18.627  10.729   6.510 -0.1763  0.0796  0.0712
    1DIPC   PO4 8630  18.315  10.765   6.097 -0.1153  0.2050  0.0038
    1DIPC   GL1 8631  18.493  10.909   5.702 -0.1382 -0.4124 -0.2982
    1DIPC   GL2 8632  18.641  10.581   5.607  0.0192 -0.1291  0.0222
    1DIPC   C1A 8633  18.374  11.146   5.496 -0.1136 -0.0124 -0.0341
    1DIPC   D2A 8634  18.002  11.270   5.470 -0.0450 -0.2732 -0.1758
    1DIPC   D3A 8635  18.300  11.538   5.142  0.0971 -0.1185 -0.2360
    1DIPC   C4A 8636  18.739  11.507   5.185 -0.3411  0.1872 -0.3373
    1DIPC   C1B 8637  18.711  10.366   5.274  0.0135  0.2627  0.4419
    1DIPC   D2B 8638  18.831  10.425   4.767 -0.0646 -0.0652 -0.2070
    1DIPC   D3B 8639  19.012  10.823   4.791 -0.1980 -0.0803  0.0841
    1DIPC   C4B 8640  19.560  10.773   4.697  0.4108 -0.1296  0.1537
    1DIPC   NC3 8641   4.321  24.914   6.503  0.1699  0.3094 -0.4190
    1DIPC   PO4 8642   4.059  24.670   6.535  0.1425 -0.2966 -0.2425
    1DIPC   GL1 8643   3.945  24.838   6.117 -0.0422 -0.2960 -0.1529
    1DIPC   GL2 8644   4.171  25.021   6.060 -0.0958 -0.0969 -0.1300
    1DIPC   C1A 8645   3.950  24.828   5.664  0.1834 -0.1657  0.1398
    1DIPC   D2A 8646   3.734  24.588   5.350 -0.0240 -0.2186  0.4058
    1DIPC   D3A 8647   3.987  24.289   5.604 -0.0954 -0.1652  0.1414
    1DIPC   C4A 8648   4.290  24.048   5.470  0.2088  0.1021 -0.0805
    1DIPC   C1B 8649   4.064  25.455   5.917 -0.1760  0.1187  0.0418
    1DIPC   D2B 8650   4.353  25.582   5.583 -0.0455 -0.1061 -0.2064
    1DIPC   D3B 8651   4.054  25.297   5.408 -0.0483  0.0060  0.2478
    1DIPC   C4B 8652   4.119  24.918   5.216 -0.1652 -0.0682  0.0984
    1DIPC   NC3 8653  23.285   6.636   6.147 -0.0262  0.0105 -0.0084
    1DIPC   PO4 8654  23.606   6.432   6.121  0.4107 -0.0723 -0.2666
    1DIPC   GL1 8655  23.729   6.349   5.816  0.0596 -0.0490  0.1516
    1DIPC   GL2 8656  23.540   6.338   5.589  0.1290 -0.2954 -0.1503
    1DIPC   C1A 8657  23.874   6.052   5.451 -0.2007  0.0399  0.0133
    1DIPC   D2A 8658  23.666   5.700   5.231  0.0360  0.1026  0.0507
    1DIPC   D3A 8659  23.717   5.291   5.223  0.0475  0.4542 -0.0516
    1DIPC   C4A 8660  23.424   5.018   5.452  0.1471  0.1873  0.0012
    1DIPC   C1B 8661  23.874   6.564   5.312  0.2386  0.3107 -0.1950
    1DIPC   D2B 8662  24.137   6.730   5.080  0.3163  0.1433  0.2155
    1DIPC   D3B 8663  24.287   6.566   4.756  0.0097  0.0736 -0.0935
    1DIPC   C4B 8664  24.576   6.742   4.428  0.1820  0.1078  0.0327
    1DIPC   NC3 8665  23.470   9.976   6.035 -0.4074 -0.1005 -0.2404
    1DIPC   PO4 8666  23.762   9.705   5.949 -0.4064 -0.1176 -0.2335
    1DIPC   GL1 8667  23.896   9.990   5.514 -0.0799  0.1614 -0.0675
    1DIPC   GL2 8668  23.689  10.064   5.230  0.0040 -0.3314  0.1176
    1DIPC   C1A 8669  24.211  10.177   5.232 -0.0423  0.2574 -0.3055
    1DIPC   D2A 8670  24.234  10.226   4.840  0.2046 -0.0257  0.1506
    1DIPC   D3A 8671  24.511  10.341   4.531  0.0976  0.1031  0.0066
    1DIPC   C4A 8672  24.440  10.304   4.075  0.1455 -0.1003 -0.2446
    1DIPC   C1B 8673  23.762  10.103   4.786 -0.0965 -0.0706 -0.2453
    1DIPC   D2B 8674  24.024  10.173   4.359 -0.1759 -0.1078  0.0982
    1DIPC   D3B 8675  23.935   9.811   3.981  0.0821  0.0513  0.2054
    1DIPC   C4B 8676  23.922   9.397   4.180 -0.2102 -0.1678  0.0292
    1DIPC   NC3 8677  25.135   8.956   6.439  0.0046 -0.0528 -0.0499
    1DIPC   PO4 8678  24.818   9.135   6.148  0.1633 -0.0705 -0.0273
    1DIPC   GL1 8679  25.123   9.323   5.789 -0.2864  0.0678  0.3238
    1DIPC   GL2 8680  25.367   9.165   5.662  0.1981  0.3578  0.0410
    1DIPC   C1A 8681  25.377   9.507   5.345 -0.1283 -0.2478  0.0903
    1DIPC   D2A 8682  25.527   9.385   5.057  0.0634 -0.0233 -0.0693
    1DIPC   D3A 8683  25.529   9.547   4.638  0.2758  0.0255 -0.1837
    1DIPC   C4A 8684  25.102   9.409   4.375 -0.1658 -0.0610  0.0281
    1DIPC   C1B 8685  25.318   9.017   5.330 -0.0040  0.1473 -0.0159
    1DIPC   D2B 8686  25.223   8.916   4.972 -0.1338 -0.0782 -0.2131
    1DIPC   D3B 8687  25.070   9.268   4.865 -0.1336  0.1000  0.1371
    1DIPC   C4B 8688  24.678   9.344   4.751  0.0109 -0.2512  0.4325
    1DIPC   NC3 8689  10.510   6.350   6.608  0.1879 -0.0999  0.1252
    1DIPC   PO4 8690  10.106   6.358   6.814  0.0457  0.0390 -0.0285
    1DIPC   GL1 8691  10.024   6.347   6.390 -0.0452 -0.2090  0.0199
    1DIPC   GL2 8692  10.246   6.457   6.144 -0.1052  0.2143  0.0310
    1DIPC   C1A 8693   9.845   6.748   6.113  0.1868  0.1090  0.2400
    1DIPC   D2A 8694   9.411   6.835   6.030 -0.3053 -0.0909 -0.1357
    1DIPC   D3A 8695   9.521   6.499   5.772  0.1270  0.1447 -0.3528
    1DIPC   C4A 8696   9.966   6.465   5.691  0.1316  0.2599 -0.3341
    1DIPC   C1B 8697  10.257   6.869   5.955 -0.0894  0.2569  0.0185
    1DIPC   D2B 8698  10.247   6.959   5.585 -0.0226 -0.2910 -0.1393
    1DIPC   D3B 8699  10.112   6.632   5.282 -0.0828  0.0219 -0.0929
    1DIPC   C4B 8700   9.653   6.546   5.287 -0.0164 -0.0211  0.0815
    1DIPC   NC3 8701  25.933   0.017   7.049 -0.1612  0.0519 -0.3176
    1DIPC   PO4 8702  26.178  30.231   7.393 -0.3524  0.1044  0.0101
    1DIPC   GL1 8703  26.145  29.904   7.020  0.2710  0.3535  0.1148
    1DIPC   GL2 8704  25.942  29.649   7.000 -0.1252 -0.0543  0.1986
    1DIPC   C1A 8705  26.440  29.711   6.718 -0.1073 -0.2266  0.0394
    1DIPC   D2A 8706  26.717  29.725   6.345 -0.0635 -0.0665 -0.1958
    1DIPC   D3A 8707  26.412  29.409   6.269 -0.1200 -0.4634 -0.1387
    1DIPC   C4A 8708  26.540  28.991   6.238 -0.0747 -0.0372 -0.5512
    1DIPC   C1B 8709  25.951  29.517   6.548 -0.3120 -0.0298  0.1962
    1DIPC   D2B 8710  25.955  29.514   6.073 -0.2740  0.1422 -0.3014
    1DIPC   D3B 8711  26.118  29.163   5.717 -0.1172  0.2367  0.0030
    1DIPC   C4B 8712  25.978  28.710   5.636  0.1390  0.1128 -0.1497
    1DIPC   NC3 8713  21.564   4.616   7.089 -0.0073 -0.3916  0.1382
    1DIPC   PO4 8714  21.680   4.691   6.783 -0.0469  0.0330 -0.1288
    1DIPC   GL1 8715  21.789   4.437   6.379 -0.0110 -0.0029 -0.0646
    1DIPC   GL2 8716  21.515   4.308   6.213  0.1757  0.0500  0.1023
    1DIPC   C1A 8717  21.938   4.434   5.971 -0.2250  0.0745  0.0813
    1DIPC   D2A 8718  22.159   4.511   5.620 -0.0516  0.0880  0.0677
    1DIPC   D3A 8719  22.254   4.335   5.198 -0.0718  0.1769  0.0456
    1DIPC   C4A 8720  22.418   4.623   4.939 -0.2004 -0.0782 -0.2754
    1DIPC   C1B 8721  21.559   4.060   5.803 -0.1547  0.3262 -0.1164
    1DIPC   D2B 8722  21.826   3.935   5.490 -0.1618 -0.0027 -0.1444
    1DIPC   D3B 8723  21.763   4.283   5.413  0.2322  0.0634 -0.3165
    1DIPC   C4B 8724  21.775   4.741   5.233 -0.1213 -0.4122  0.5386
    1DIPC   NC3 8725  14.146  17.063   6.731 -0.1773  0.0452 -0.2235
    1DIPC   PO4 8726  14.338  17.288   6.463  0.0339 -0.1557  0.2335
    1DIPC   GL1 8727  14.452  17.137   6.049 -0.0761  0.2302  0.5381
    1DIPC   GL2 8728  14.508  17.537   5.895 -0.3397  0.3192  0.0664
    1DIPC   C1A 8729  14.708  17.102   5.672  0.1146  0.0408  0.2775
    1DIPC   D2A 8730  14.885  16.738   5.502  0.1203  0.2779  0.0697
    1DIPC   D3A 8731  15.105  16.458   5.124  0.0107 -0.3930 -0.3349
    1DIPC   C4A 8732  15.245  16.468   4.733 -0.0909 -0.2227  0.0920
    1DIPC   C1B 8733  14.174  17.436   5.708  0.2687 -0.0942 -0.1288
    1DIPC   D2B 8734  14.006  17.118   5.371  0.1081  0.2252 -0.5442
    1DIPC   D3B 8735  14.286  17.301   5.172  0.1359 -0.4299 -0.3880
    1DIPC   C4B 8736  14.685  17.506   5.358 -0.1962  0.1076  0.0903
    1DIPC   NC3 8737   0.741   3.038   7.364 -0.2949  0.2596 -0.1904
    1DIPC   PO4 8738   1.023   3.037   7.030 -0.1454 -0.1830  0.0093
    1DIPC   GL1 8739   1.014   2.933   6.636  0.2025 -0.1514 -0.1682
    1DIPC   GL2 8740   0.964   3.147   6.391 -0.1728 -0.0106  0.1749
    1DIPC   C1A 8741   1.115   2.571   6.347  0.2146  0.2028 -0.0592
    1DIPC   D2A 8742   1.326   2.223   5.999  0.2828 -0.0652 -0.2264
    1DIPC   D3A 8743   1.255   2.279   5.476 -0.2431 -0.1085  0.0346
    1DIPC   C4A 8744   1.298   1.811   5.264  0.0990 -0.1904 -0.2968
    1DIPC   C1B 8745   1.115   2.933   6.044 -0.0405 -0.0842 -0.3635
    1DIPC   D2B 8746   1.147   2.707   5.651  0.1952 -0.0162 -0.0604
    1DIPC   D3B 8747   0.733   2.572   5.515  0.0316  0.1140  0.2917
    1DIPC   C4B 8748   0.325   2.850   5.480  0.4603  0.1583  0.1161
    1DIPC   NC3 8749  16.155  24.184   6.861 -0.1699 -0.1311  0.1959
    1DIPC   PO4 8750  16.154  24.107   6.449 -0.0952  0.2181 -0.0839
    1DIPC   GL1 8751  16.130  24.133   5.970  0.1374  0.4657 -0.0283
    1DIPC   GL2 8752  15.989  23.799   5.786  0.0304  0.1804 -0.0289
    1DIPC   C1A 8753  16.444  24.242   5.624  0.2066 -0.0329  0.1475
    1DIPC   D2A 8754  16.486  24.582   5.231  0.2358 -0.0655 -0.0604
    1DIPC   D3A 8755  16.503  24.233   5.011 -0.1788 -0.0769  0.3607
    1DIPC   C4A 8756  16.313  23.849   5.288  0.1289  0.2408  0.2597
    1DIPC   C1B 8757  15.863  24.095   5.480 -0.1362  0.2284 -0.1971
    1DIPC   D2B 8758  16.035  24.541   5.541  0.0583  0.3754  0.4104
    1DIPC   D3B 8759  15.706  24.828   5.375  0.2856 -0.0543 -0.0229
    1DIPC   C4B 8760  15.558  24.868   4.912  0.2072  0.1738  0.1275
    1DIPC   NC3 8761   4.315   1.101   6.933  0.1481 -0.2225 -0.1725
    1DIPC   PO4 8762   3.963   1.408   7.020 -0.2633 -0.3402  0.1608
    1DIPC   GL1 8763   4.056   1.451   6.569 -0.0948  0.0207  0.2195
    1DIPC   GL2 8764   4.233   1.228   6.422  0.1086 -0.1496 -0.1778
    1DIPC   C1A 8765   3.795   1.403   6.162  0.1507  0.0870 -0.1966
    1DIPC   D2A 8766   3.707   1.122   5.940  0.1800 -0.3508  0.0650
    1DIPC   D3A 8767   3.581   0.826   5.669 -0.0475 -0.1123 -0.1356
    1DIPC   C4A 8768   3.490   0.364   5.812  0.0347  0.0530  0.0961
    1DIPC   C1B 8769   4.178   0.966   6.060 -0.1317  0.3651  0.2420
    1DIPC   D2B 8770   4.453   0.861   5.658 -0.2385 -0.2035 -0.0640
    1DIPC   D3B 8771   4.470   1.054   5.153 -0.0969  0.1812 -0.0259
    1DIPC   C4B 8772   4.683   1.400   5.106  0.2728  0.2785 -0.0788
    1DIPC   NC3 8773  19.273   0.588   6.791 -0.1123 -0.0456 -0.0294
    1DIPC   PO4 8774  19.525   0.239   6.710  0.1275  0.0922  0.2051
    1DIPC   GL1 8775  19.443  30.230   6.446 -0.0128 -0.0626  0.0869
    1DIPC   GL2 8776  19.739  30.196   6.413  0.3750 -0.1033 -0.2277
    1DIPC   C1A 8777  19.465  30.011   6.041  0.1825  0.1106 -0.3791
    1DIPC   D2A 8778  19.609  29.728   5.702 -0.0081 -0.3797 -0.3289
    1DIPC   D3A 8779  19.828  29.568   5.341  0.1364  0.0021 -0.0066
    1DIPC   C4A 8780  19.504  29.271   5.241  0.0960 -0.2178  0.0076
    1DIPC   C1B 8781  19.875  29.790   6.198 -0.4019 -0.0835 -0.1033
    1DIPC   D2B 8782  19.584  29.448   6.162 -0.2580 -0.0907 -0.5511
    1DIPC   D3B 8783  19.279  29.170   5.973  0.0430  0.1770  0.1022
    1DIPC   C4B 8784  19.161  29.400   5.633 -0.5703 -0.0999  0.2870
    1DIPC   NC3 8785  28.025   3.466   7.104  0.0824  0.1748 -0.2072
    1DIPC   PO4 8786  28.260   3.802   7.046 -0.2414  0.2823 -0.0788
    1DIPC   GL1 8787  28.462   3.740   6.640 -0.3375 -0.0559 -0.1486
    1DIPC   GL2 8788  28.221   3.464   6.645 -0.3252 -0.1941 -0.1275
    1DIPC   C1A 8789  28.368   3.711   6.207 -0.1210  0.1224 -0.1587
    1DIPC   D2A 8790  28.178   3.747   5.827 -0.3515 -0.3011  0.1644
    1DIPC   D3A 8791  28.331   3.462   5.549 -0.0995 -0.3015  0.1593
    1DIPC   C4A 8792  28.714   3.207   5.507 -0.1560 -0.0808  0.4508
    1DIPC   C1B 8793  27.897   3.519   6.406  0.2655 -0.2952 -0.0433
    1DIPC   D2B 8794  27.523   3.447   6.193  0.1303  0.1845  0.2702
    1DIPC   D3B 8795  27.636   3.942   6.195 -0.0731  0.3030 -0.2624
    1DIPC   C4B 8796  27.775   4.121   5.776 -0.1953  0.1552 -0.0670
    1DIPC   NC3 8797   8.630  28.341   6.891  0.1147 -0.1481  0.0884
    1DIPC   PO4 8798   8.985  28.639   7.088  0.3162 -0.1648 -0.0767
    1DIPC   GL1 8799   8.969  28.990   6.813 -0.1234  0.0441  0.2214
    1DIPC   GL2 8800   9.351  29.071   6.613 -0.2454  0.2891 -0.0124
    1DIPC   C1A 8801   8.912  28.967   6.351 -0.0610 -0.1736 -0.2637
    1DIPC   D2A 8802   8.769  28.496   6.201  0.0753 -0.2609 -0.0505
    1DIPC   D3A 8803   8.677  28.396   5.826 -0.1328 -0.1273  0.4378
    1DIPC   C4A 8804   8.806  28.530   5.424  0.0925 -0.3121  0.0831
    1DIPC   C1B 8805   9.713  29.163   6.255 -0.1063 -0.2427 -0.2278
    1DIPC   D2B 8806   9.740  29.445   5.806 -0.1027  0.1005  0.0962
    1DIPC   D3B 8807   9.494  29.660   5.556 -0.2226 -0.0314  0.4330
    1DIPC   C4B 8808   9.670  29.829   5.199 -0.1184 -0.0592  0.0933
    1DIPC   NC3 8809  27.003  12.891   6.853  0.4057  0.3050 -0.0708
    1DIPC   PO4 8810  26.645  13.268   6.845 -0.1044  0.0010 -0.0335
    1DIPC   GL1 8811  26.736  13.032   6.421 -0.0444  0.0265  0.0468
    1DIPC   GL2 8812  26.892  13.455   6.308  0.0354  0.0423  0.1386
    1DIPC   C1A 8813  26.768  13.038   6.037  0.0975 -0.0251  0.1624
    1DIPC   D2A 8814  26.671  13.035   5.594 -0.1191  0.1158  0.1441
    1DIPC   D3A 8815  26.682  12.957   5.164  0.0740 -0.0754  0.0572
    1DIPC   C4A 8816  26.553  12.505   4.926  0.0060 -0.2581  0.1632
    1DIPC   C1B 8817  26.542  13.591   5.986 -0.0598 -0.0496 -0.1255
    1DIPC   D2B 8818  26.606  13.543   5.505  0.0680 -0.0096  0.1733
    1DIPC   D3B 8819  26.373  13.996   5.480  0.2950 -0.0867  0.0107
    1DIPC   C4B 8820  26.665  14.220   5.743 -0.0381 -0.1256 -0.0984
    1DIPC   NC3 8821  10.378  16.994   6.468  0.3039 -0.1719 -0.0289
    1DIPC   PO4 8822  10.792  16.715   6.635 -0.1576  0.0575 -0.2507
    1DIPC   GL1 8823  10.694  16.717   6.242  0.0172 -0.1608 -0.0320
    1DIPC   GL2 8824  10.636  17.091   6.038  0.0697  0.1321 -0.0408
    1DIPC   C1A 8825  10.873  16.451   5.890 -0.2160  0.1410  0.1394
    1DIPC   D2A 8826  10.816  16.086   5.672 -0.0841  0.0157  0.0851
    1DIPC   D3A 8827  10.626  15.785   5.425 -0.1554 -0.2059  0.0299
    1DIPC   C4A 8828  10.624  15.761   5.016  0.1882  0.1007  0.0211
    1DIPC   C1B 8829  10.402  16.780   5.804  0.1020 -0.1695  0.5460
    1DIPC   D2B 8830  10.458  16.941   5.416  0.0779 -0.1225 -0.3010
    1DIPC   D3B 8831  10.783  17.288   5.536 -0.3263 -0.2152 -0.0238
    1DIPC   C4B 8832  10.868  17.637   5.330 -0.2604  0.0348 -0.2136
    1DIPC   NC3 8833  10.428  27.261   6.379  0.0076  0.3106 -0.0966
    1DIPC   PO4 8834  10.002  27.209   6.235  0.1010 -0.0888 -0.0288
    1DIPC   GL1 8835  10.018  27.272   5.806 -0.3673 -0.0744 -0.0528
    1DIPC   GL2 8836   9.878  26.878   5.657  0.1571  0.3592  0.1800
    1DIPC   C1A 8837   9.783  27.570   5.586  0.0898 -0.1196  0.3290
    1DIPC   D2A 8838   9.581  27.753   5.242  0.0128 -0.4122  0.0020
    1DIPC   D3A 8839   9.853  27.798   4.933 -0.2013 -0.0115  0.0439
    1DIPC   C4A 8840  10.036  27.515   4.688  0.0377 -0.1047  0.2347
    1DIPC   C1B 8841   9.548  27.073   5.528 -0.0312 -0.3130 -0.0585
    1DIPC   D2B 8842   9.319  27.258   5.305  0.2205  0.2655 -0.2531
    1DIPC   D3B 8843   9.087  27.184   5.006  0.0149  0.3229  0.2959
    1DIPC   C4B 8844   8.829  27.408   4.618 -0.0324 -0.0267 -0.1147
    1DIPC   NC3 8845  20.429  11.403   5.787 -0.1673  0.0578 -0.2827
    1DIPC   PO4 8846  20.214  11.002   5.666 -0.0890  0.2140  0.1736
    1DIPC   GL1 8847  20.053  10.706   5.444 -0.0605 -0.0145 -0.0861
    1DIPC   GL2 8848  20.346  10.565   5.375 -0.0575 -0.2233 -0.1132
    1DIPC   C1A 8849  19.810  10.512   5.063  0.3093 -0.0882  0.2016
    1DIPC   D2A 8850  19.909  10.260   4.640  0.0989  0.0989  0.2069
    1DIPC   D3A 8851  19.690   9.826   4.697  0.0677 -0.1316  0.2308
    1DIPC   C4A 8852  19.613   9.513   4.339  0.2253 -0.0970  0.1905
    1DIPC   C1B 8853  20.293  10.459   4.963  0.1377  0.2342  0.0792
    1DIPC   D2B 8854  20.510  10.490   4.577 -0.1827 -0.1321 -0.1430
    1DIPC   D3B 8855  20.106  10.749   4.547 -0.0757  0.0473 -0.2385
    1DIPC   C4B 8856  19.887  10.727   4.326  0.1066  0.0390  0.0356
    1DIPC   NC3 8857  19.552  16.567   6.416 -0.0122  0.1219 -0.0208
    1DIPC   PO4 8858  19.116  16.673   6.474 -0.1513  0.2261  0.2494
    1DIPC   GL1 8859  19.154  16.683   6.076 -0.1112  0.1004  0.2813
    1DIPC   GL2 8860  18.917  16.830   5.913 -0.2446  0.1935  0.0909
    1DIPC   C1A 8861  19.096  16.348   5.857 -0.3380  0.2386  0.0077
    1DIPC   D2A 8862  19.019  16.199   5.503 -0.0387  0.1490 -0.0891
    1DIPC   D3A 8863  18.722  16.333   5.242 -0.0150 -0.0767  0.0074
    1DIPC   C4A 8864  18.531  16.455   4.878 -0.0282  0.3092  0.2834
    1DIPC   C1B 8865  18.826  16.713   5.555  0.0819  0.0410 -0.0015
    1DIPC   D2B 8866  18.815  16.907   5.098 -0.1557  0.2066  0.1987
    1DIPC   D3B 8867  18.952  16.761   4.654 -0.2296  0.3435  0.3536
    1DIPC   C4B 8868  18.789  17.043   4.340  0.2157 -0.2632 -0.0528
    1DIPC   NC3 8869  23.527  18.565   5.949  0.2153  0.1826  0.0175
    1DIPC   PO4 8870  23.108  18.613   5.724 -0.0508  0.1553  0.3153
    1DIPC   GL1 8871  23.275  18.404   5.349  0.2515  0.0690 -0.1548
    1DIPC   GL2 8872  23.384  18.684   5.191 -0.0178  0.0600 -0.0289
    1DIPC   C1A 8873  23.327  18.087   4.940  0.0614  0.0436  0.0547
    1DIPC   D2A 8874  23.280  18.223   4.529 -0.1432 -0.1170  0.0831
    1DIPC   D3A 8875  23.345  18.263   4.108  0.0204  0.0122 -0.0157
    1DIPC   C4A 8876  23.536  17.967   3.811  0.1606  0.1170 -0.0820
    1DIPC   C1B 8877  23.210  18.686   4.804 -0.0305 -0.0642  0.0312
    1DIPC   D2B 8878  23.384  18.871   4.465 -0.0490 -0.0176 -0.2055
    1DIPC   D3B 8879  23.477  19.167   4.121 -0.3686  0.0021 -0.3310
    1DIPC   C4B 8880  23.059  19.363   3.892  0.2393  0.1453  0.1706
    1DIPC   NC3 8881  29.662   0.514   7.669 -0.0044  0.0170  0.2787
    1DIPC   PO4 8882  29.981   0.507   7.473 -0.0320  0.3439  0.0116
    1DIPC   GL1 8883  30.059   0.757   7.179 -0.1370  0.0741 -0.1323
    1DIPC   GL2 8884  30.221   0.534   6.962 -0.0723  0.1787  0.0352
    1DIPC   C1A 8885  29.930   1.006   6.887 -0.2558 -0.1136  0.0413
    1DIPC   D2A 8886  29.671   1.322   6.883  0.0220  0.1486 -0.3000
    1DIPC   D3A 8887  29.518   1.476   6.512 -0.0705  0.1234  0.1399
    1DIPC   C4A 8888  29.675   1.652   6.179  0.2088 -0.0925  0.0248
    1DIPC   C1B 8889  29.935   0.301   6.778  0.0745  0.0536 -0.1177
    1DIPC   D2B 8890  29.539   0.170   6.720  0.1568  0.1403  0.0177
    1DIPC   D3B 8891  29.104   0.365   6.660  0.0168  0.0412  0.0299
    1DIPC   C4B 8892  29.084   0.493   6.181 -0.1488 -0.2215 -0.1322
    1DIPC   NC3 8893  10.177   7.957   6.899 -0.1753  0.2076 -0.1696
    1DIPC   PO4 8894  10.218   7.958   6.433  0.2008  0.0787 -0.1069
    1DIPC   GL1 8895   9.840   7.959   6.115  0.2519  0.0700 -0.2839
    1DIPC   GL2 8896   9.882   7.690   5.930  0.1231 -0.0140 -0.1563
    1DIPC   C1A 8897   9.515   8.202   5.863  0.1533  0.0692  0.3733
    1DIPC   D2A 8898   9.446   8.232   5.518  0.0591 -0.3835  0.0450
    1DIPC   D3A 8899   9.619   8.428   5.243  0.0147 -0.1181 -0.1759
    1DIPC   C4A 8900   9.968   8.513   4.933 -0.1648  0.3806 -0.1085
    1DIPC   C1B 8901   9.860   7.883   5.529 -0.1579  0.1106  0.1382
    1DIPC   D2B 8902  10.044   8.187   5.325  0.0950 -0.2820  0.2008
    1DIPC   D3B 8903  10.416   8.271   5.307 -0.0106  0.0793 -0.0407
    1DIPC   C4B 8904  10.486   8.312   4.784  0.1972 -0.0633  0.1385
    1DIPC   NC3 8905   1.940  23.669   6.935 -0.2207  0.2358  0.1877
    1DIPC   PO4 8906   2.072  24.073   7.120  0.1606  0.0999 -0.0780
    1DIPC   GL1 8907   2.365  24.111   6.786  0.1703 -0.0089  0.2985
    1DIPC   GL2 8908   2.315  23.846   6.621  0.1857 -0.0008 -0.2651
    1DIPC   C1A 8909   2.626  24.171   6.302  0.2365 -0.2292  0.0140
    1DIPC   D2A 8910   3.060  24.346   6.081  0.1642 -0.0892  0.0391
    1DIPC   D3A 8911   2.870  24.575   5.742 -0.2367  0.4785  0.2823
    1DIPC   C4A 8912   2.442  24.478   5.465  0.1550  0.3202  0.1665
    1DIPC   C1B 8913   2.307  23.834   6.162 -0.4435  0.1647 -0.0942
    1DIPC   D2B 8914   2.356  24.066   5.873 -0.1003  0.0277 -0.0447
    1DIPC   D3B 8915   2.068  24.356   5.761 -0.2108  0.1570 -0.0087
    1DIPC   C4B 8916   1.983  24.551   5.353  0.0401  0.2324  0.0313
    1DIPC   NC3 8917  23.395  15.139   5.839  0.1373  0.3905 -0.0918
    1DIPC   PO4 8918  23.423  15.559   5.827 -0.0419  0.0939  0.3234
    1DIPC   GL1 8919  23.459  15.901   5.561  0.0841  0.0739 -0.1774
    1DIPC   GL2 8920  23.689  15.862   5.371  0.0440  0.1312 -0.2902
    1DIPC   C1A 8921  23.375  16.325   5.335 -0.0588  0.0784 -0.0428
    1DIPC   D2A 8922  23.225  16.572   4.965  0.3400 -0.1601  0.1616
    1DIPC   D3A 8923  23.244  16.873   4.598 -0.2037  0.0303 -0.0796
    1DIPC   C4A 8924  23.184  17.404   4.761 -0.0774  0.0434 -0.0870
    1DIPC   C1B 8925  23.562  16.100   4.921  0.1674 -0.1482 -0.0647
    1DIPC   D2B 8926  23.219  15.936   4.558 -0.0876 -0.1431 -0.0492
    1DIPC   D3B 8927  23.595  15.654   4.410  0.0952  0.1891 -0.3797
    1DIPC   C4B 8928  23.889  15.891   4.363 -0.0315 -0.0364  0.1338
    1DIPC   NC3 8929  24.204  18.032   6.258 -0.0492 -0.0276 -0.0239
    1DIPC   PO4 8930  24.554  17.754   6.020  0.3071 -0.3320  0.2113
    1DIPC   GL1 8931  24.520  17.779   5.548 -0.0920 -0.0188  0.1713
    1DIPC   GL2 8932  24.570  18.047   5.479 -0.2918  0.1426 -0.4922
    1DIPC   C1A 8933  24.203  17.745   5.277  0.0030  0.2142 -0.0435
    1DIPC   D2A 8934  24.122  17.927   4.932  0.3618  0.1185  0.1977
    1DIPC   D3A 8935  24.512  17.705   4.902  0.0422  0.3138 -0.2027
    1DIPC   C4A 8936  24.578  17.779   4.478 -0.0145 -0.0279  0.3117
    1DIPC   C1B 8937  24.836  18.031   5.042  0.0241 -0.0050  0.0992
    1DIPC   D2B 8938  24.979  18.125   4.539  0.3019  0.1317  0.1490
    1DIPC   D3B 8939  24.885  17.952   4.156 -0.2442  0.0449 -0.0764
    1DIPC   C4B 8940  24.613  18.132   3.864  0.5616  0.0056  0.2147
    1DIPC   NC3 8941  18.680   3.535   6.424  0.1110 -0.2234  0.4313
    1DIPC   PO4 8942  18.808   3.229   6.464  0.0750 -0.2786 -0.0074
    1DIPC   GL1 8943  18.759   3.005   5.957  0.0766  0.0608  0.3718
    1DIPC   GL2 8944  19.055   3.153   5.766 -0.3686 -0.3000 -0.1289
    1DIPC   C1A 8945  18.637   3.151   5.510 -0.0648  0.2971 -0.0714
    1DIPC   D2A 8946  18.580   3.077   5.088  0.0193 -0.1513  0.0096
    1DIPC   D3A 8947  18.255   2.878   4.907  0.1930 -0.1678  0.0214
    1DIPC   C4A 8948  18.296   2.885   4.528 -0.1328  0.0096 -0.2160
    1DIPC   C1B 8949  19.181   3.185   5.383 -0.1025 -0.0357 -0.1602
    1DIPC   D2B 8950  19.091   3.002   4.957 -0.1701  0.2372 -0.2331
    1DIPC   D3B 8951  19.403   2.700   4.755  0.2833  0.1693  0.0905
    1DIPC   C4B 8952  19.609   2.904   4.341 -0.0453  0.4128 -0.0649
    1DIPC   NC3 8953  17.662  15.923   6.715 -0.0421 -0.0129  0.1141
    1DIPC   PO4 8954  18.044  15.760   6.462 -0.2019  0.1701  0.4470
    1DIPC   GL1 8955  17.733  15.795   6.159  0.0858 -0.1244 -0.2650
    1DIPC   GL2 8956  17.520  15.538   6.095 -0.0899 -0.0434 -0.0695
    1DIPC   C1A 8957  17.594  16.077   5.817 -0.0045 -0.0284 -0.1835
    1DIPC   D2A 8958  17.320  16.430   5.624 -0.0746  0.1291  0.0970
    1DIPC   D3A 8959  17.363  16.959   5.567 -0.0768 -0.1258  0.0650
    1DIPC   C4A 8960  17.390  17.242   5.236 -0.0992 -0.1414 -0.2995
    1DIPC   C1B 8961  17.649  15.338   5.700 -0.1586  0.0492  0.2658
    1DIPC   D2B 8962  17.567  14.961   5.473  0.0559 -0.2764  0.1079
    1DIPC   D3B 8963  17.343  15.033   5.148 -0.3860  0.0754 -0.0514
    1DIPC   C4B 8964  17.552  15.140   4.855  0.1483  0.1339  0.1337
    1DIPC   NC3 8965  20.938  24.871   6.120  0.2839  0.1594 -0.0658
    1DIPC   PO4 8966  20.698  24.529   5.929 -0.2981  0.1317 -0.1624
    1DIPC   GL1 8967  20.734  24.451   5.508  0.1882 -0.0900 -0.0077
    1DIPC   GL2 8968  20.931  24.136   5.533  0.2429  0.0197 -0.0031
    1DIPC   C1A 8969  20.690  24.750   5.168 -0.3098  0.1296  0.2883
    1DIPC   D2A 8970  20.675  24.638   4.745  0.1669 -0.0239  0.2107
    1DIPC   D3A 8971  21.024  24.879   4.614  0.0855  0.0670  0.1592
    1DIPC   C4A 8972  21.396  24.748   4.402  0.1259 -0.3511 -0.0478
    1DIPC   C1B 8973  20.912  23.854   5.221 -0.0059  0.0150 -0.4565
    1DIPC   D2B 8974  21.189  23.669   4.970  0.3542  0.1058  0.3426
    1DIPC   D3B 8975  20.955  23.520   4.610 -0.0771 -0.0640 -0.2942
    1DIPC   C4B 8976  20.981  23.769   4.343  0.3466 -0.0205  0.0710
    1DIPC   NC3 8977   8.447  19.226   6.176  0.0293 -0.1666 -0.1250
    1DIPC   PO4 8978   8.465  19.268   5.720 -0.1219 -0.0706  0.2980
    1DIPC   GL1 8979   8.462  19.057   5.307 -0.1676 -0.1215  0.0511
    1DIPC   GL2 8980   8.306  19.294   5.160  0.1248 -0.1656 -0.0026
    1DIPC   C1A 8981   8.499  18.702   5.122  0.2752 -0.0152 -0.2054
    1DIPC   D2A 8982   8.823  18.559   5.165 -0.0477 -0.1702  0.0541
    1DIPC   D3A 8983   9.384  18.690   4.990  0.0485  0.0649  0.1447
    1DIPC   C4A 8984   9.665  18.342   5.151 -0.0942 -0.0666 -0.1542
    1DIPC   C1B 8985   8.219  19.347   4.840  0.3018 -0.2974  0.1553
    1DIPC   D2B 8986   8.171  19.503   4.428 -0.0752 -0.0825  0.2673
    1DIPC   D3B 8987   8.535  19.464   4.069  0.0734 -0.0931 -0.2360
    1DIPC   C4B 8988   8.703  19.489   3.604 -0.0337 -0.2249 -0.1923
    1DIPC   NC3 8989  21.478   0.462   6.812 -0.1322 -0.0801 -0.0795
    1DIPC   PO4 8990  21.699   0.848   6.767 -0.1287 -0.2724 -0.1051
    1DIPC   GL1 8991  21.624   0.758   6.302  0.0676 -0.4371  0.1294
    1DIPC   GL2 8992  21.883   1.000   6.125  0.2479  0.1789 -0.0340
    1DIPC   C1A 8993  21.595   0.715   5.834  0.3203 -0.1770 -0.0661
    1DIPC   D2A 8994  21.712   0.808   5.418  0.1910  0.3147  0.0432
    1DIPC   D3A 8995  21.496   1.255   5.418 -0.0979  0.0120 -0.4001
    1DIPC   C4A 8996  21.701   1.588   5.280  0.1543 -0.2081 -0.3258
    1DIPC   C1B 8997  21.862   1.203   5.818 -0.1463 -0.0441 -0.2445
    1DIPC   D2B 8998  22.131   1.555   5.657 -0.0712  0.0175 -0.0043
    1DIPC   D3B 8999  22.164   1.661   5.256  0.2113 -0.0152 -0.0077
    1DIPC   C4B 9000  22.025   2.035   5.030  0.0812 -0.2837 -0.4274
    1DIPC   NC3 9001  18.813  28.705   6.773  0.2131 -0.0019  0.0253
    1DIPC   PO4 9002  18.826  29.153   6.770  0.1963  0.1459 -0.0383
    1DIPC   GL1 9003  18.948  29.474   6.555 -0.1089  0.0805  0.0864
    1DIPC   GL2 9004  18.857  29.266   6.283  0.2377  0.1027  0.0867
    1DIPC   C1A 9005  19.087  29.668   6.116 -0.3070 -0.2871 -0.2484
    1DIPC   D2A 9006  19.081  29.880   5.670 -0.0531  0.0316  0.2358
    1DIPC   D3A 9007  18.727  30.102   5.670 -0.0872 -0.0397  0.0783
    1DIPC   C4A 9008  18.456  30.025   5.238  0.1301  0.0328  0.1428
    1DIPC   C1B 9009  18.703  28.971   6.115 -0.1380 -0.1800 -0.1780
    1DIPC   D2B 9010  18.605  28.623   6.319  0.0224  0.2811  0.1480
    1DIPC   D3B 9011  18.820  28.519   5.923  0.0035 -0.1884 -0.2720
    1DIPC   C4B 9012  19.003  28.913   5.671 -0.0874  0.3184 -0.1396
    1DIPC   NC3 9013   5.105  25.276   6.787  0.1178 -0.1838  0.1242
    1DIPC   PO4 9014   5.503  25.456   6.532  0.3010 -0.0739  0.0369
    1DIPC   GL1 9015   5.374  25.587   6.221 -0.1074 -0.0600  0.2555
    1DIPC   GL2 9016   5.563  25.826   6.121  0.1569  0.0047  0.2131
    1DIPC   C1A 9017   5.008  25.639   5.948  0.1211  0.0525  0.1083
    1DIPC   D2A 9018   4.900  25.419   5.632  0.2203 -0.1862  0.0975
    1DIPC   D3A 9019   5.099  25.811   5.272  0.0847 -0.0155 -0.0711
    1DIPC   C4A 9020   4.930  26.042   4.880 -0.0530  0.0754 -0.0577
    1DIPC   C1B 9021   5.878  25.850   5.792  0.0499 -0.2696  0.0137
    1DIPC   D2B 9022   5.981  25.562   5.526  0.1325  0.2496  0.0686
    1DIPC   D3B 9023   6.079  25.919   5.305  0.0779  0.3271 -0.1070
    1DIPC   C4B 9024   5.840  26.276   5.395  0.2557  0.0773 -0.2792
    1DIPC   NC3 9025   9.531   5.510   7.140  0.1673 -0.1429 -0.0520
    1DIPC   PO4 9026   9.670   5.736   6.925  0.0327  0.2130  0.0676
    1DIPC   GL1 9027   9.749   5.940   6.464  0.2645 -0.1532  0.0759
    1DIPC   GL2 9028   9.952   5.806   6.307  0.0578  0.1510  0.1390
    1DIPC   C1A 9029   9.635   5.968   5.997  0.1524 -0.0067  0.4605
    1DIPC   D2A 9030   9.704   6.063   5.536 -0.0415  0.3540 -0.0699
    1DIPC   D3A 9031   9.562   5.708   5.252 -0.1823  0.1765 -0.0624
    1DIPC   C4A 9032   9.795   5.404   4.931  0.0177 -0.1042  0.0671
    1DIPC   C1B 9033  10.242   5.971   5.896 -0.0084  0.0417  0.2708
    1DIPC   D2B 9034  10.178   6.028   5.525 -0.3429 -0.2062 -0.0929
    1DIPC   D3B 9035  10.126   6.188   5.195  0.0919  0.1637 -0.0390
    1DIPC   C4B 9036   9.853   6.065   4.990  0.1819 -0.1514 -0.0052
    1DIPC   NC3 9037   6.234  17.264   6.380  0.0008 -0.0331 -0.2894
    1DIPC   PO4 9038   6.447  17.291   5.975 -0.0172  0.1530  0.1104
    1DIPC   GL1 9039   6.366  17.344   5.525  0.0838 -0.1934  0.0914
    1DIPC   GL2 9040   6.325  17.610   5.376 -0.0832 -0.0495  0.0015
    1DIPC   C1A 9041   6.298  17.231   5.051  0.1583  0.0269  0.0140
    1DIPC   D2A 9042   6.097  17.064   4.755 -0.0527 -0.0869 -0.1501
    1DIPC   D3A 9043   6.288  17.337   4.469  0.1550 -0.1992  0.0434
    1DIPC   C4A 9044   6.139  17.258   4.066 -0.0110 -0.1297 -0.1380
    1DIPC   C1B 9045   6.537  17.646   5.101  0.1507  0.0671  0.3160
    1DIPC   D2B 9046   6.902  17.735   4.730 -0.0949 -0.3328  0.0693
    1DIPC   D3B 9047   7.246  17.507   4.559  0.1257  0.1245 -0.4250
    1DIPC   C4B 9048   7.547  17.551   4.271 -0.1275  0.0707  0.0112
    1DIPC   NC3 9049  19.582  20.559   6.475 -0.2630 -0.1636 -0.1237
    1DIPC   PO4 9050  19.270  20.622   6.099 -0.1791 -0.0842  0.4325
    1DIPC   GL1 9051  19.337  20.856   5.766  0.1857 -0.0901 -0.0906
    1DIPC   GL2 9052  19.684  20.970   5.594 -0.1432  0.0188 -0.1018
    1DIPC   C1A 9053  19.274  21.103   5.458  0.2195 -0.0098 -0.2691
    1DIPC   D2A 9054  19.251  21.274   5.011 -0.1303 -0.0674 -0.2569
    1DIPC   D3A 9055  18.816  21.458   5.083  0.3719 -0.3053 -0.3413
    1DIPC   C4A 9056  18.725  21.474   5.555 -0.1047 -0.1534  0.1028
    1DIPC   C1B 9057  19.635  20.970   5.159 -0.2704 -0.0092  0.0166
    1DIPC   D2B 9058  19.801  21.059   4.690  0.0537 -0.1057  0.3148
    1DIPC   D3B 9059  19.313  21.060   4.542  0.3596 -0.2103 -0.1288
    1DIPC   C4B 9060  19.132  21.465   4.490 -0.2082 -0.1435  0.4007
    1DIPC   NC3 9061  14.673  16.081   6.518 -0.2174  0.1412  0.2957
    1DIPC   PO4 9062  14.392  16.539   6.454 -0.0932  0.0982 -0.1042
    1DIPC   GL1 9063  14.368  16.650   6.125 -0.1309 -0.1720  0.2429
    1DIPC   GL2 9064  14.642  16.650   5.941  0.1699 -0.0585  0.1038
    1DIPC   C1A 9065  14.276  16.897   5.689 -0.1765  0.1260  0.4007
    1DIPC   D2A 9066  14.437  16.755   5.289  0.2399  0.1809 -0.1469
    1DIPC   D3A 9067  14.233  16.858   4.938  0.0202 -0.0149  0.0844
    1DIPC   C4A 9068  14.157  16.524   4.674 -0.2268 -0.1558  0.1039
    1DIPC   C1B 9069  14.556  16.391   5.571  0.4077 -0.1312  0.3311
    1DIPC   D2B 9070  14.763  16.067   5.271  0.1615  0.2059 -0.1757
    1DIPC   D3B 9071  14.444  16.249   5.073 -0.2582 -0.1057 -0.0545
    1DIPC   C4B 9072  14.023  16.467   5.336  0.1308  0.1449 -0.2463
    1DIPC   NC3 9073  19.412  21.323   6.507 -0.1634  0.1198  0.0932
    1DIPC   PO4 9074  19.320  21.780   6.450  0.0553  0.0948  0.2453
    1DIPC   GL1 9075  19.167  22.031   6.150 -0.1114  0.0956  0.3119
    1DIPC   GL2 9076  19.154  22.401   6.028 -0.0112  0.0108  0.2474
    1DIPC   C1A 9077  19.156  22.047   5.648 -0.1344  0.0401 -0.0121
    1DIPC   D2A 9078  19.177  21.817   5.304 -0.0451  0.3144  0.0600
    1DIPC   D3A 9079  19.075  21.862   4.920 -0.3980  0.1182 -0.1634
    1DIPC   C4A 9080  18.780  22.213   4.747 -0.3179  0.2181 -0.3156
    1DIPC   C1B 9081  19.173  22.549   5.599 -0.0353 -0.0206  0.1389
    1DIPC   D2B 9082  18.990  22.782   5.325  0.2650 -0.1327 -0.0425
    1DIPC   D3B 9083  18.843  23.046   5.078  0.1203 -0.2231 -0.0976
    1DIPC   C4B 9084  18.380  23.190   5.130  0.0446  0.0152 -0.1863
    1DIPC   NC3 9085  19.383  23.689   6.518  0.2402 -0.2258  0.0815
    1DIPC   PO4 9086  19.538  23.405   6.086  0.1405 -0.1241 -0.2005
    1DIPC   GL1 9087  19.292  23.312   5.688 -0.3580  0.0535 -0.0908
    1DIPC   GL2 9088  19.177  23.548   5.708  0.3693  0.0827 -0.1488
    1DIPC   C1A 9089  19.289  23.330   5.227  0.4020 -0.0334 -0.0458
    1DIPC   D2A 9090  19.300  23.101   4.870 -0.0298 -0.0012  0.4232
    1DIPC   D3A 9091  19.514  22.836   4.715  0.1995  0.2179 -0.1305
    1DIPC   C4A 9092  19.449  22.652   4.393 -0.1937  0.0319  0.0128
    1DIPC   C1B 9093  19.183  23.818   5.379 -0.0660 -0.0728  0.2213
    1DIPC   D2B 9094  19.391  23.944   5.082  0.1687 -0.1266  0.2837
    1DIPC   D3B 9095  19.226  24.141   4.640 -0.2594 -0.0435 -0.0256
    1DIPC   C4B 9096  18.873  24.426   4.497 -0.1772  0.3797  0.0254
    1DIPC   NC3 9097  18.614  19.449   6.334  0.0426  0.3353 -0.1519
    1DIPC   PO4 9098  18.394  19.256   6.024  0.0924  0.2750  0.0453
    1DIPC   GL1 9099  18.365  19.183   5.530 -0.4433 -0.1146  0.0139
    1DIPC   GL2 9100  18.560  19.023   5.343  0.0543  0.3030 -0.0015
    1DIPC   C1A 9101  18.548  19.505   5.386  0.0214  0.2698  0.0703
    1DIPC   D2A 9102  18.647  19.707   5.087  0.3203  0.0800 -0.3058
    1DIPC   D3A 9103  18.533  19.902   4.803 -0.2276  0.2024  0.4612
    1DIPC   C4A 9104  18.256  20.114   4.650  0.2723 -0.0922  0.0494
    1DIPC   C1B 9105  18.561  19.253   4.912 -0.1043  0.2380  0.2992
    1DIPC   D2B 9106  18.414  19.293   4.553 -0.1810 -0.0177 -0.0800
    1DIPC   D3B 9107  18.689  19.576   4.436  0.1235 -0.2452 -0.4238
    1DIPC   C4B 9108  18.943  19.600   4.165 -0.1099 -0.2832  0.1099
    1DIPC   NC3 9109  25.624  15.685   6.468  0.0389  0.1554  0.0326
    1DIPC   PO4 9110  25.605  15.933   6.174  0.2791  0.0686  0.1200
    1DIPC   GL1 9111  25.464  15.908   5.773  0.2496 -0.1974 -0.2918
    1DIPC   GL2 9112  25.538  16.219   5.637  0.0905  0.3436  0.1585
    1DIPC   C1A 9113  25.164  15.849   5.395  0.1302  0.3082  0.0113
    1DIPC   D2A 9114  25.012  15.634   4.959  0.2170  0.1752  0.1488
    1DIPC   D3A 9115  24.544  15.817   5.056 -0.0538 -0.2239  0.1154
    1DIPC   C4A 9116  24.318  15.906   4.664  0.0962 -0.0741 -0.0830
    1DIPC   C1B 9117  25.476  16.233   5.210 -0.0282  0.0836  0.3408
    1DIPC   D2B 9118  25.071  16.229   5.093  0.5168 -0.0545  0.2741
    1DIPC   D3B 9119  24.564  16.287   4.923  0.1028 -0.1675  0.1495
    1DIPC   C4B 9120  24.579  16.312   4.641 -0.1805  0.2972  0.0011
    1DIPC   NC3 9121  25.833   0.946   6.868 -0.0367 -0.1889  0.0570
    1DIPC   PO4 9122  26.108   1.198   6.824 -0.0166 -0.2724 -0.4536
    1DIPC   GL1 9123  26.301   1.112   6.540  0.1134 -0.0627  0.0285
    1DIPC   GL2 9124  26.465   1.428   6.431 -0.1694 -0.0328 -0.2918
    1DIPC   C1A 9125  26.332   1.142   6.079  0.0657 -0.2795  0.3425
    1DIPC   D2A 9126  26.227   1.043   5.716 -0.0900  0.3029 -0.4170
    1DIPC   D3A 9127  25.966   0.794   5.465 -0.1140 -0.1602  0.1472
    1DIPC   C4A 9128  26.003   0.456   5.264  0.1630  0.2971  0.1304
    1DIPC   C1B 9129  26.802   1.107   6.374  0.0091 -0.0262 -0.1981
    1DIPC   D2B 9130  27.098   0.864   6.432 -0.3247  0.0346  0.0169
    1DIPC   D3B 9131  27.167   0.715   6.032 -0.4893 -0.2296  0.2461
    1DIPC   C4B 9132  27.489   0.616   5.854 -0.0342  0.1107  0.1998
    1DIPC   NC3 9133   5.601  11.141   6.653 -0.3730 -0.0326  0.0759
    1DIPC   PO4 9134   5.474  11.581   6.552  0.0010  0.1370  0.1251
    1DIPC   GL1 9135   5.641  11.818   6.234 -0.1929 -0.1436  0.1374
    1DIPC   GL2 9136   5.648  12.112   6.065  0.1298 -0.0069  0.1768
    1DIPC   C1A 9137   5.822  11.681   5.805  0.0903 -0.1932 -0.2661
    1DIPC   D2A 9138   6.088  11.648   5.461 -0.3440 -0.0817  0.1388
    1DIPC   D3A 9139   5.869  11.470   5.216 -0.2490 -0.2203 -0.2454
    1DIPC   C4A 9140   5.543  11.701   5.079 -0.0616 -0.0020  0.0873
    1DIPC   C1B 9141   5.349  11.921   5.699 -0.0111 -0.2385 -0.0332
    1DIPC   D2B 9142   5.218  11.615   5.493  0.2487 -0.1570  0.0705
    1DIPC   D3B 9143   5.246  11.438   5.938 -0.1651 -0.2824 -0.1539
    1DIPC   C4B 9144   5.470  11.001   5.996  0.2855 -0.0194 -0.1446
    1DIPC   NC3 9145  16.116  14.052   7.244 -0.1019  0.0881 -0.0876
    1DIPC   PO4 9146  15.842  14.362   7.206 -0.1746 -0.0402  0.0745
    1DIPC   GL1 9147  15.741  14.538   6.772 -0.1815  0.1786 -0.1549
    1DIPC   GL2 9148  15.381  14.502   6.513 -0.1157  0.0817  0.0496
    1DIPC   C1A 9149  15.983  14.635   6.364 -0.2527 -0.1704  0.2893
    1DIPC   D2A 9150  16.276  14.907   6.164 -0.1801 -0.1584  0.2593
    1DIPC   D3A 9151  15.890  15.147   6.150  0.2744  0.1087  0.1146
    1DIPC   C4A 9152  15.618  14.995   5.837 -0.2165 -0.1769 -0.1232
    1DIPC   C1B 9153  15.442  14.511   6.083 -0.0088 -0.1426  0.1360
    1DIPC   D2B 9154  15.547  14.388   5.626 -0.1306 -0.1468  0.2646
    1DIPC   D3B 9155  15.419  14.137   5.270  0.1762  0.1217 -0.1052
    1DIPC   C4B 9156  15.787  14.153   5.128  0.1022 -0.0311 -0.0475
    1DIPC   NC3 9157  18.805   5.660   6.345 -0.2466  0.1786 -0.0076
    1DIPC   PO4 9158  19.197   5.880   6.457 -0.3636  0.0448  0.0121
    1DIPC   GL1 9159  19.433   5.948   6.078  0.0376  0.1487 -0.0403
    1DIPC   GL2 9160  19.482   6.236   5.875  0.3593  0.1076 -0.2788
    1DIPC   C1A 9161  19.574   5.878   5.638 -0.1666 -0.1139 -0.1736
    1DIPC   D2A 9162  19.746   5.913   5.242  0.3483  0.2210 -0.1321
    1DIPC   D3A 9163  20.165   5.763   5.227  0.1635  0.0803 -0.1207
    1DIPC   C4A 9164  20.586   5.885   5.405 -0.0957  0.1683 -0.0009
    1DIPC   C1B 9165  19.671   6.339   5.431  0.1875  0.1375 -0.0909
    1DIPC   D2B 9166  19.762   6.663   5.079 -0.0379  0.1375  0.1913
    1DIPC   D3B 9167  19.640   6.295   4.839  0.3328  0.2945  0.0201
    1DIPC   C4B 9168  20.105   6.112   4.757  0.0506  0.2105 -0.0843
    1DIPC   NC3 9169  16.061   4.112   6.049  0.2073  0.0057  0.1957
    1DIPC   PO4 9170  15.718   4.235   5.998 -0.2748  0.0537  0.2758
    1DIPC   GL1 9171  15.720   3.883   5.673 -0.4201  0.2324 -0.2479
    1DIPC   GL2 9172  15.989   3.850   5.521 -0.0112  0.1317 -0.1399
    1DIPC   C1A 9173  15.491   3.718   5.320  0.1026  0.0745  0.1770
    1DIPC   D2A 9174  15.675   3.566   4.881  0.1513 -0.3651 -0.0978
    1DIPC   D3A 9175  15.666   3.743   4.496 -0.1318 -0.1972  0.1293
    1DIPC   C4A 9176  15.520   3.812   4.065 -0.0685 -0.2636 -0.0205
    1DIPC   C1B 9177  16.062   3.510   5.276  0.0794  0.1990  0.1712
    1DIPC   D2B 9178  16.369   3.206   5.169 -0.0929 -0.0062  0.3399
    1DIPC   D3B 9179  16.737   3.363   5.147 -0.1527 -0.0781  0.1450
    1DIPC   C4B 9180  16.868   3.072   4.900  0.1181  0.1084  0.0425
    1DIPC   NC3 9181   0.563  25.619   6.893  0.3020  0.1784 -0.1952
    1DIPC   PO4 9182   0.937  25.756   6.726  0.1798 -0.4017 -0.0385
    1DIPC   GL1 9183   0.851  25.791   6.314 -0.0233 -0.0567  0.3183
    1DIPC   GL2 9184   0.524  25.863   6.328  0.1332 -0.3088 -0.1116
    1DIPC   C1A 9185   0.873  25.866   5.856 -0.2314 -0.2476 -0.1065
    1DIPC   D2A 9186   0.852  25.680   5.475  0.2390 -0.0689 -0.2262
    1DIPC   D3A 9187   0.692  25.895   5.185 -0.0320 -0.1404 -0.1358
    1DIPC   C4A 9188   0.261  25.958   5.144 -0.0014  0.1225  0.1883
    1DIPC   C1B 9189   0.238  25.674   6.009 -0.2520 -0.0881  0.4190
    1DIPC   D2B 9190   0.308  25.645   5.525  0.0056 -0.0814  0.3049
    1DIPC   D3B 9191  30.343  25.587   5.415  0.1398  0.3362  0.1033
    1DIPC   C4B 9192  30.255  25.572   5.027 -0.2553  0.0361 -0.2096
    1DIPC   NC3 9193  23.099  11.629   6.232  0.3597 -0.1444  0.0512
    1DIPC   PO4 9194  23.482  11.517   5.982  0.0872 -0.1289 -0.0828
    1DIPC   GL1 9195  23.657  11.649   5.570 -0.1515 -0.0738 -0.1036
    1DIPC   GL2 9196  23.451  11.477   5.474  0.2201 -0.2917 -0.1591
    1DIPC   C1A 9197  23.619  11.889   5.162  0.1579  0.0219  0.1898
    1DIPC   D2A 9198  23.758  11.698   4.774  0.0525  0.1183 -0.1887
    1DIPC   D3A 9199  23.574  12.021   4.487 -0.1102 -0.1269 -0.3338
    1DIPC   C4A 9200  23.654  12.259   4.127 -0.0355 -0.0237  0.2607
    1DIPC   C1B 9201  23.398  11.454   5.051  0.0108 -0.0376 -0.1056
    1DIPC   D2B 9202  23.440  11.371   4.611  0.1514  0.1196 -0.1434
    1DIPC   D3B 9203  23.080  11.371   4.452 -0.0074 -0.2317  0.1502
    1DIPC   C4B 9204  22.944  11.385   4.060 -0.0391 -0.0650 -0.0297
    1DIPC   NC3 9205  10.808  17.514   6.884 -0.0124 -0.0374 -0.5557
    1DIPC   PO4 9206  10.896  17.245   6.570  0.1482  0.0946 -0.2894
    1DIPC   GL1 9207  11.114  16.973   6.098  0.1915 -0.2370 -0.1859
    1DIPC   GL2 9208  11.419  16.809   6.152  0.0981 -0.0814  0.0961
    1DIPC   C1A 9209  11.010  16.910   5.631  0.1464  0.3723  0.2520
    1DIPC   D2A 9210  11.133  16.880   5.217 -0.1734  0.1265 -0.2483
    1DIPC   D3A 9211  11.260  16.475   4.931  0.0259  0.0687  0.2510
    1DIPC   C4A 9212  11.431  16.536   4.532 -0.1108 -0.3253 -0.2227
    1DIPC   C1B 9213  11.403  16.641   5.814 -0.2654  0.2691 -0.1384
    1DIPC   D2B 9214  11.639  16.556   5.412  0.1424 -0.0208 -0.0726
    1DIPC   D3B 9215  11.948  16.877   5.515  0.0180 -0.1600 -0.3044
    1DIPC   C4B 9216  11.920  17.358   5.552  0.0865 -0.1315  0.1215
    1DIPC   NC3 9217  25.646   9.787   6.714  0.1664  0.0678  0.2493
    1DIPC   PO4 9218  25.313   9.692   6.409  0.0530  0.0580  0.1782
    1DIPC   GL1 9219  25.494   9.717   5.947 -0.0417 -0.1583  0.3602
    1DIPC   GL2 9220  25.755   9.485   5.757 -0.2092 -0.2261  0.0487
    1DIPC   C1A 9221  25.626   9.929   5.621 -0.1824 -0.1372  0.0525
    1DIPC   D2A 9222  25.473  10.405   5.524 -0.1588  0.2453 -0.0837
    1DIPC   D3A 9223  25.302  10.009   5.257 -0.0059 -0.1336 -0.0851
    1DIPC   C4A 9224  25.484  10.024   4.841  0.0758  0.1308 -0.0901
    1DIPC   C1B 9225  25.901   9.182   5.382  0.2901 -0.0164  0.2918
    1DIPC   D2B 9226  26.313   9.142   5.231  0.0838  0.1405  0.2891
    1DIPC   D3B 9227  26.759   9.001   5.028 -0.2107  0.0185 -0.0277
    1DIPC   C4B 9228  27.202   9.097   4.790 -0.3579  0.0119  0.2412
    1DIPC   NC3 9229  11.041  12.869   7.260  0.2112 -0.4579 -0.2041
    1DIPC   PO4 9230  11.086  13.316   7.362 -0.0667 -0.3748  0.1778
    1DIPC   GL1 9231  10.978  13.345   6.949  0.1412 -0.0532  0.1018
    1DIPC   GL2 9232  11.221  13.132   6.870 -0.3446 -0.2646 -0.0693
    1DIPC   C1A 9233  10.756  13.203   6.554  0.3103 -0.1229  0.0371
    1DIPC   D2A 9234  10.864  13.092   6.096  0.1193  0.0547 -0.0371
    1DIPC   D3A 9235  10.707  13.515   6.169 -0.1131 -0.1748  0.2864
    1DIPC   C4A 9236  10.966  13.800   5.983 -0.3558  0.0610 -0.1146
    1DIPC   C1B 9237  11.522  13.365   6.746 -0.0102  0.2253 -0.2199
    1DIPC   D2B 9238  11.535  13.746   6.428 -0.1475  0.3477 -0.2830
    1DIPC   D3B 9239  11.470  13.865   5.954  0.1161  0.1192  0.0698
    1DIPC   C4B 9240  11.515  14.311   5.755  0.3313  0.1117 -0.2219
    1DIPC   NC3 9241   7.710  13.517   7.005  0.2094  0.1140  0.0277
    1DIPC   PO4 9242   7.589  13.677   6.660  0.0125  0.5053  0.0194
    1DIPC   GL1 9243   7.568  13.552   6.298 -0.0149  0.3852 -0.0069
    1DIPC   GL2 9244   7.914  13.731   6.193  0.4792 -0.4546 -0.0743
    1DIPC   C1A 9245   7.524  13.513   5.868  0.0295 -0.2609 -0.2936
    1DIPC   D2A 9246   7.241  13.346   5.467 -0.1115 -0.2155  0.0245
    1DIPC   D3A 9247   7.145  13.793   5.350 -0.0269 -0.0899  0.1701
    1DIPC   C4A 9248   7.291  14.092   5.048 -0.0500  0.0364  0.1414
    1DIPC   C1B 9249   7.963  13.886   5.839  0.1043 -0.0199 -0.1219
    1DIPC   D2B 9250   8.167  13.952   5.394  0.1848  0.0737 -0.0222
    1DIPC   D3B 9251   8.133  14.344   5.613  0.0156 -0.3801 -0.1917
    1DIPC   C4B 9252   7.819  14.397   5.841  0.1091  0.0082  0.2128
    1DIPC   NC3 9253  20.076   2.552   7.228 -0.0551 -0.0415 -0.1759
    1DIPC   PO4 9254  19.888   2.707   6.722 -0.2123 -0.2828 -0.2730
    1DIPC   GL1 9255  19.756   2.781   6.310  0.0932  0.1519 -0.0542
    1DIPC   GL2 9256  19.706   2.926   6.061  0.1374 -0.1998 -0.0769
    1DIPC   C1A 9257  19.615   2.428   5.982 -0.1891  0.1036 -0.0722
    1DIPC   D2A 9258  20.063   2.140   5.851 -0.0151  0.4629  0.0050
    1DIPC   D3A 9259  20.086   2.213   5.329  0.1853 -0.0916 -0.3377
    1DIPC   C4A 9260  20.455   2.092   5.168  0.0958  0.1271 -0.0699
    1DIPC   C1B 9261  19.686   3.166   5.515 -0.0354 -0.0235 -0.1238
    1DIPC   D2B 9262  19.579   2.950   5.170  0.0859  0.0168 -0.0759
    1DIPC   D3B 9263  19.496   3.287   4.878 -0.0854 -0.0193  0.0471
    1DIPC   C4B 9264  19.253   3.197   4.519 -0.1263 -0.1227  0.0812
    1DIPC   NC3 9265  17.752   6.485   5.835  0.0574 -0.0327  0.0734
    1DIPC   PO4 9266  17.457   6.565   5.451 -0.3142  0.1976 -0.1354
    1DIPC   GL1 9267  17.374   6.594   5.035  0.0059 -0.0671 -0.1971
    1DIPC   GL2 9268  17.559   6.759   4.745 -0.0098 -0.0465  0.2485
    1DIPC   C1A 9269  17.200   6.472   4.569  0.3297 -0.0509 -0.0239
    1DIPC   D2A 9270  17.186   6.555   4.176 -0.1408 -0.1204  0.0062
    1DIPC   D3A 9271  17.616   6.532   4.144  0.3398 -0.0820 -0.1219
    1DIPC   C4A 9272  17.861   6.803   4.337  0.1083 -0.1683  0.0890
    1DIPC   C1B 9273  17.347   6.978   4.475 -0.1908  0.1634 -0.3800
    1DIPC   D2B 9274  17.184   7.004   4.074 -0.2747 -0.2276 -0.0958
    1DIPC   D3B 9275  17.519   6.761   3.733 -0.2664 -0.0787 -0.0495
    1DIPC   C4B 9276  18.009   6.713   3.863 -0.1672  0.1062 -0.0514
    1DIPC   NC3 9277  22.221  20.742   5.791  0.2999  0.2282  0.0421
    1DIPC   PO4 9278  22.627  20.949   5.698 -0.1063 -0.0498 -0.4652
    1DIPC   GL1 9279  22.709  20.823   5.237 -0.1287  0.3087 -0.1323
    1DIPC   GL2 9280  23.083  20.964   5.286 -0.1342  0.1130  0.1264
    1DIPC   C1A 9281  22.786  20.721   4.865  0.1819 -0.1000 -0.0185
    1DIPC   D2A 9282  22.847  20.740   4.425 -0.2196 -0.2636  0.0546
    1DIPC   D3A 9283  22.979  20.357   4.241  0.0668  0.1278  0.2248
    1DIPC   C4A 9284  23.005  20.396   3.883 -0.0215  0.0551 -0.0900
    1DIPC   C1B 9285  23.258  20.859   4.882 -0.3755 -0.1382  0.2877
    1DIPC   D2B 9286  23.335  21.077   4.466 -0.2171  0.0558 -0.1448
    1DIPC   D3B 9287  23.292  20.813   4.187  0.4316 -0.0813 -0.0631
    1DIPC   C4B 9288  23.243  21.039   3.856  0.0200 -0.1003  0.0171
    1DIPC   NC3 9289  13.608   7.335   6.643 -0.2231  0.0237  0.1554
    1DIPC   PO4 9290  13.842   6.953   6.595 -0.0386 -0.0137 -0.1658
    1DIPC   GL1 9291  13.882   7.155   6.225 -0.2745 -0.0492 -0.1050
    1DIPC   GL2 9292  13.702   7.389   6.181  0.3403  0.1950  0.0262
    1DIPC   C1A 9293  14.175   7.249   5.919  0.2330 -0.0410 -0.1480
    1DIPC   D2A 9294  14.438   7.356   5.640  0.0867  0.1340  0.0600
    1DIPC   D3A 9295  14.598   6.891   5.524 -0.2645  0.2133 -0.1935
    1DIPC   C4A 9296  14.313   6.602   5.339 -0.1250 -0.0324 -0.2949
    1DIPC   C1B 9297  13.688   7.165   5.779  0.2378  0.3013  0.0395
    1DIPC   D2B 9298  13.826   7.106   5.423 -0.0272  0.1143 -0.0696
    1DIPC   D3B 9299  14.213   7.224   5.202 -0.0053  0.1056 -0.2042
    1DIPC   C4B 9300  14.300   7.108   4.752  0.4229 -0.2028  0.3260
    1DIPC   NC3 9301   8.231  23.493   6.229  0.0556  0.0400 -0.3723
    1DIPC   PO4 9302   8.562  23.522   6.051 -0.1484 -0.1308 -0.1032
    1DIPC   GL1 9303   8.614  23.629   5.648 -0.3374 -0.0632 -0.1789
    1DIPC   GL2 9304   8.683  23.310   5.547 -0.1269  0.0912 -0.0453
    1DIPC   C1A 9305   8.398  24.001   5.455 -0.1615  0.0131 -0.3688
    1DIPC   D2A 9306   8.049  24.018   5.246 -0.1328 -0.4344 -0.0524
    1DIPC   D3A 9307   8.273  23.830   4.923 -0.3478 -0.0120 -0.0633
    1DIPC   C4A 9308   8.101  23.642   4.615 -0.1187  0.1703 -0.1083
    1DIPC   C1B 9309   8.836  23.109   5.147 -0.0790 -0.0544 -0.0727
    1DIPC   D2B 9310   8.862  22.817   4.871  0.2158  0.0402  0.1091
    1DIPC   D3B 9311   8.453  22.773   4.978  0.0758 -0.0316  0.0587
    1DIPC   C4B 9312   8.119  22.818   4.590  0.0877  0.3903  0.0903
    1DIPC   NC3 9313   8.576   7.063   6.908 -0.1543  0.3724  0.4683
    1DIPC   PO4 9314   8.809   7.405   6.877  0.0591 -0.1146 -0.1756
    1DIPC   GL1 9315   9.149   7.186   6.590  0.2175 -0.0881 -0.1802
    1DIPC   GL2 9316   9.139   6.834   6.584 -0.0857  0.0034  0.1654
    1DIPC   C1A 9317   9.124   7.165   6.209  0.3248  0.1142  0.3093
    1DIPC   D2A 9318   9.166   7.128   5.669  0.1516 -0.0147  0.0814
    1DIPC   D3A 9319   9.204   6.675   5.457  0.2151  0.0807  0.0511
    1DIPC   C4A 9320   8.931   6.496   5.100  0.0331 -0.0047 -0.0587
    1DIPC   C1B 9321   9.011   6.607   6.253  0.5296 -0.3859  0.1071
    1DIPC   D2B 9322   8.802   6.249   6.181  0.2547  0.1251  0.2715
    1DIPC   D3B 9323   9.165   5.985   6.213 -0.2429 -0.1444  0.0299
    1DIPC   C4B 9324   9.515   6.363   6.326 -0.1902 -0.0310  0.3325
    1DIPC   NC3 9325   7.647   9.281   6.892  0.0475 -0.1825  0.0255
    1DIPC   PO4 9326   7.674   8.811   6.854 -0.1324 -0.0199 -0.0103
    1DIPC   GL1 9327   7.534   8.794   6.421 -0.1586 -0.1346  0.1280
    1DIPC   GL2 9328   7.542   9.203   6.327  0.0121  0.0116  0.0231
    1DIPC   C1A 9329   7.572   8.854   5.974  0.3184  0.1534 -0.2878
    1DIPC   D2A 9330   7.539   9.052   5.600  0.0402 -0.0272 -0.3359
    1DIPC   D3A 9331   7.727   9.348   5.262  0.1899 -0.0564  0.0701
    1DIPC   C4A 9332   7.819   9.100   4.835 -0.0427 -0.3055 -0.3072
    1DIPC   C1B 9333   7.894   9.225   6.031 -0.1250  0.1263  0.1375
    1DIPC   D2B 9334   7.926   9.519   5.674 -0.1688 -0.1461  0.0091
    1DIPC   D3B 9335   8.068   9.716   5.188 -0.0799 -0.0236  0.1517
    1DIPC   C4B 9336   8.380   9.477   4.968 -0.0267  0.0159 -0.0508
    1DIPC   NC3 9337  12.264  23.667   6.685  0.2305  0.0180 -0.2315
    1DIPC   PO4 9338  12.171  23.195   6.568 -0.0597 -0.3706 -0.0065
    1DIPC   GL1 9339  12.278  22.976   6.133 -0.5480 -0.1458 -0.0372
    1DIPC   GL2 9340  12.559  22.990   5.977 -0.0657  0.0010  0.1278
    1DIPC   C1A 9341  12.058  22.953   5.905  0.1553  0.1080  0.2149
    1DIPC   D2A 9342  11.910  22.717   5.515  0.1358  0.1160  0.1582
    1DIPC   D3A 9343  12.017  22.867   5.057  0.3244  0.3798  0.1427
    1DIPC   C4A 9344  11.769  23.221   4.886 -0.2048  0.1149  0.1291
    1DIPC   C1B 9345  12.821  23.081   5.593  0.1930  0.1581 -0.1312
    1DIPC   D2B 9346  12.994  22.878   5.213  0.1003  0.1158  0.1917
    1DIPC   D3B 9347  13.383  23.096   5.221  0.1996 -0.0375  0.0446
    1DIPC   C4B 9348  13.507  23.009   4.823 -0.2492 -0.2208 -0.2523
    1DIPC   NC3 9349   1.656  30.255   7.066  0.0806  0.0262  0.0413
    1DIPC   PO4 9350   1.135  30.284   7.167 -0.1186 -0.1986 -0.0845
    1DIPC   GL1 9351   1.252  30.167   6.679  0.1056  0.0778 -0.2213
    1DIPC   GL2 9352   1.510   0.018   6.597 -0.2146 -0.0106 -0.1195
    1DIPC   C1A 9353   1.428  29.974   6.276  0.0529  0.0779 -0.0315
    1DIPC   D2A 9354   1.373  30.038   5.877 -0.0690  0.1643 -0.1023
    1DIPC   D3A 9355   1.451  29.655   5.652 -0.0301  0.1881 -0.0641
    1DIPC   C4A 9356   1.023  29.348   5.600 -0.0305 -0.0933  0.1412
    1DIPC   C1B 9357   1.480   0.241   6.221  0.4614 -0.0823 -0.0485
    1DIPC   D2B 9358   1.491   0.372   5.820 -0.2148  0.0073  0.0432
    1DIPC   D3B 9359   1.721   0.568   5.678  0.1978  0.1065  0.3021
    1DIPC   C4B 9360   1.852   0.351   5.257 -0.1198 -0.1983 -0.1147
    1DIPC   NC3 9361   6.230  28.085   6.775  0.1095 -0.2808  0.0860
    1DIPC   PO4 9362   6.012  28.495   6.790  0.1833  0.0686  0.3008
    1DIPC   GL1 9363   6.082  28.383   6.348 -0.1121 -0.1470  0.0544
    1DIPC   GL2 9364   6.178  28.639   6.200 -0.2922 -0.0470 -0.2373
    1DIPC   C1A 9365   6.291  28.107   5.905 -0.1661 -0.1689 -0.1538
    1DIPC   D2A 9366   6.002  27.948   5.594 -0.1475 -0.0766  0.1909
    1DIPC   D3A 9367   5.618  27.934   5.360 -0.0643 -0.1497  0.1333
    1DIPC   C4A 9368   5.439  28.292   5.339 -0.2471  0.2832  0.0605
    1DIPC   C1B 9369   6.056  28.815   5.810 -0.0089  0.0168 -0.2309
    1DIPC   D2B 9370   5.841  29.018   5.306 -0.2697  0.0253  0.2830
    1DIPC   D3B 9371   5.526  28.787   5.104 -0.0293  0.1192 -0.3518
    1DIPC   C4B 9372   5.618  28.457   4.882  0.0105 -0.0859 -0.2323
    1DIPC   NC3 9373  12.783  21.214   6.201  0.0575  0.0920  0.0373
    1DIPC   PO4 9374  13.198  21.330   5.986  0.0050 -0.1613 -0.3826
    1DIPC   GL1 9375  13.095  21.353   5.504 -0.5012  0.2086 -0.3183
    1DIPC   GL2 9376  13.396  21.483   5.270 -0.0551 -0.3068 -0.1271
    1DIPC   C1A 9377  12.793  21.419   5.111  0.4672 -0.1925  0.3360
    1DIPC   D2A 9378  12.684  21.589   4.650  0.1425 -0.2134  0.0856
    1DIPC   D3A 9379  12.498  21.892   4.262 -0.4756 -0.1930 -0.0459
    1DIPC   C4A 9380  12.330  22.143   3.873  0.0650  0.3159 -0.0696
    1DIPC   C1B 9381  13.636  21.730   5.026  0.3338  0.3190  0.0239
    1DIPC   D2B 9382  13.835  22.038   4.639 -0.1898  0.0358 -0.0484
    1DIPC   D3B 9383  14.110  21.775   4.769  0.0189 -0.1479 -0.2114
    1DIPC   C4B 9384  14.378  21.451   4.474 -0.1166 -0.1468 -0.2666
    1DIPC   NC3 9385  29.208   7.365   6.689 -0.1357 -0.2904 -0.1498
    1DIPC   PO4 9386  28.749   7.200   6.652  0.2843 -0.1582  0.0186
    1DIPC   GL1 9387  28.533   7.388   6.238 -0.2544 -0.2356 -0.1014
    1DIPC   GL2 9388  28.719   7.242   6.031  0.3839  0.0891 -0.2259
    1DIPC   C1A 9389  28.636   7.674   5.884  0.0091 -0.3480  0.0112
    1DIPC   D2A 9390  28.551   7.964   5.517  0.0098  0.0913 -0.0076
    1DIPC   D3A 9391  28.710   7.928   5.102 -0.0368  0.2292 -0.0284
    1DIPC   C4A 9392  28.760   7.600   4.939 -0.1866  0.2963 -0.0432
    1DIPC   C1B 9393  28.377   7.177   5.775  0.1048 -0.1439  0.3308
    1DIPC   D2B 9394  27.960   7.031   5.889  0.1726 -0.1487 -0.3655
    1DIPC   D3B 9395  27.911   6.633   6.112  0.0130  0.1314  0.3324
    1DIPC   C4B 9396  27.670   6.283   5.987  0.0876  0.3394 -0.0842
    1DIPC   NC3 9397  16.557  16.976   6.813 -0.0838 -0.2118 -0.0110
    1DIPC   PO4 9398  16.645  16.626   6.659  0.3077 -0.2601  0.1489
    1DIPC   GL1 9399  16.397  16.504   6.288 -0.1202 -0.1320  0.0562
    1DIPC   GL2 9400  16.595  16.136   6.181 -0.1230 -0.1783  0.1190
    1DIPC   C1A 9401  16.302  16.355   5.824 -0.0214 -0.0107  0.2141
    1DIPC   D2A 9402  16.100  16.260   5.494 -0.0441  0.2186  0.0892
    1DIPC   D3A 9403  16.401  16.126   5.241 -0.1629  0.0433  0.1554
    1DIPC   C4A 9404  16.398  15.898   4.924  0.0467  0.2399 -0.1138
    1DIPC   C1B 9405  16.759  16.063   5.637  0.2122 -0.1365  0.1022
    1DIPC   D2B 9406  16.818  15.758   5.275 -0.0337 -0.0745 -0.0439
    1DIPC   D3B 9407  17.092  15.659   4.901 -0.0890 -0.1918  0.1619
    1DIPC   C4B 9408  17.607  15.588   5.021  0.0345 -0.0149  0.0887
    1DIPC   NC3 9409  13.026  19.162   5.623  0.2101  0.1666 -0.3294
    1DIPC   PO4 9410  13.074  19.617   5.737 -0.2454  0.1329  0.2417
    1DIPC   GL1 9411  12.892  19.643   5.326 -0.0278 -0.2068  0.0691
    1DIPC   GL2 9412  12.723  19.426   5.298  0.0145  0.1891  0.1109
    1DIPC   C1A 9413  12.679  19.907   4.919 -0.0797  0.2994 -0.0883
    1DIPC   D2A 9414  12.244  20.123   4.698 -0.1454  0.1053 -0.1393
    1DIPC   D3A 9415  12.550  20.190   4.348  0.4829  0.0023 -0.2587
    1DIPC   C4A 9416  12.462  20.223   3.910 -0.2626 -0.1612 -0.0348
    1DIPC   C1B 9417  12.713  19.375   4.848  0.2674 -0.3062  0.1809
    1DIPC   D2B 9418  12.836  19.633   4.557 -0.2255 -0.5736  0.1394
    1DIPC   D3B 9419  12.727  19.695   4.060 -0.1509 -0.0454 -0.0052
    1DIPC   C4B 9420  12.598  19.308   3.964  0.1020  0.0217  0.0456
    1DIPC   NC3 9421  11.807  11.172   7.007  0.1446 -0.4005 -0.2950
    1DIPC   PO4 9422  11.415  11.265   6.915  0.2807 -0.0637  0.0442
    1DIPC   GL1 9423  11.516  11.456   6.426 -0.1327  0.1993  0.1080
    1DIPC   GL2 9424  11.651  11.156   6.463  0.0463 -0.2676  0.0005
    1DIPC   C1A 9425  11.447  11.396   6.000  0.0505 -0.1531  0.0113
    1DIPC   D2A 9426  11.500  11.177   5.559  0.3632 -0.1697  0.1586
    1DIPC   D3A 9427  11.066  11.264   5.493  0.1409  0.0254 -0.0339
    1DIPC   C4A 9428  11.012  11.570   5.680 -0.1189 -0.1281  0.0290
    1DIPC   C1B 9429  11.762  11.032   6.037 -0.0820 -0.1083 -0.3673
    1DIPC   D2B 9430  11.830  10.656   5.981  0.0847  0.1420 -0.0818
    1DIPC   D3B 9431  11.824  10.177   5.982 -0.3502  0.2705 -0.0848
    1DIPC   C4B 9432  11.773   9.929   5.531 -0.1432  0.2379  0.3952
    1DIPC   NC3 9433  25.760  20.727   6.473  0.3066 -0.1650  0.1516
    1DIPC   PO4 9434  25.726  20.298   6.288 -0.0755  0.1378 -0.0678
    1DIPC   GL1 9435  25.696  20.435   5.866  0.0696  0.1300  0.0861
    1DIPC   GL2 9436  25.419  20.470   5.770  0.2173 -0.2450 -0.1638
    1DIPC   C1A 9437  25.719  20.341   5.389  0.0461  0.3397  0.0203
    1DIPC   D2A 9438  25.658  20.348   4.952 -0.2265 -0.2424  0.2986
    1DIPC   D3A 9439  25.273  20.527   4.860 -0.2468 -0.0953 -0.1220
    1DIPC   C4A 9440  25.064  20.190   4.641 -0.1765 -0.0649 -0.1360
    1DIPC   C1B 9441  25.215  20.504   5.372 -0.0734 -0.2068  0.2539
    1DIPC   D2B 9442  24.910  20.274   5.091  0.1417  0.3444 -0.3848
    1DIPC   D3B 9443  24.542  20.217   4.743  0.2709 -0.0564 -0.0867
    1DIPC   C4B 9444  24.630  20.235   4.264 -0.0656 -0.2097 -0.1643
    1DIPC   NC3 9445  28.069   5.152   7.474  0.3206  0.1373  0.3057
    1DIPC   PO4 9446  27.852   5.153   7.165  0.0836  0.1979 -0.0001
    1DIPC   GL1 9447  27.772   4.944   6.793  0.1442 -0.0680  0.2475
    1DIPC   GL2 9448  27.952   4.755   6.788 -0.1074  0.2870 -0.1781
    1DIPC   C1A 9449  27.526   4.957   6.331 -0.0680 -0.0431 -0.0246
    1DIPC   D2A 9450  27.356   4.748   6.004 -0.0201 -0.0305  0.1560
    1DIPC   D3A 9451  27.452   4.794   5.610  0.2197 -0.0792  0.0318
    1DIPC   C4A 9452  27.770   4.530   5.446 -0.0570  0.1127 -0.0570
    1DIPC   C1B 9453  28.262   4.548   6.551 -0.3055  0.0212  0.1220
    1DIPC   D2B 9454  28.554   4.683   6.168  0.0531 -0.0740 -0.5152
    1DIPC   D3B 9455  28.519   4.713   5.713 -0.0096 -0.0547  0.1891
    1DIPC   C4B 9456  28.396   4.536   5.355  0.0480 -0.4437 -0.1143
    1DIPC   NC3 9457  16.068   3.376   6.398  0.0104  0.1095 -0.2390
    1DIPC   PO4 9458  16.293   3.725   6.272 -0.1806 -0.0871 -0.1625
    1DIPC   GL1 9459  16.166   3.556   5.937 -0.0019 -0.3864  0.2001
    1DIPC   GL2 9460  15.816   3.457   5.978  0.2632 -0.0032 -0.0804
    1DIPC   C1A 9461  16.238   3.176   5.660  0.1429  0.1168 -0.1929
    1DIPC   D2A 9462  16.120   2.804   5.745  0.0314 -0.1509  0.1020
    1DIPC   D3A 9463  16.061   2.847   5.265 -0.0584 -0.0439  0.2270
    1DIPC   C4A 9464  15.992   2.675   4.853 -0.3644  0.1340 -0.1587
    1DIPC   C1B 9465  15.736   3.339   5.593  0.0923 -0.1038 -0.3111
    1DIPC   D2B 9466  15.516   3.123   5.198 -0.1450 -0.5877 -0.2105
    1DIPC   D3B 9467  15.269   3.024   4.941 -0.3347  0.1343 -0.0664
    1DIPC   C4B 9468  15.168   3.401   4.722  0.2118 -0.0626 -0.2534
    1DIPC   NC3 9469  20.134  14.295   6.082  0.3569 -0.2569 -0.0100
    1DIPC   PO4 9470  20.204  13.975   5.916  0.1372  0.3110 -0.1067
    1DIPC   GL1 9471  20.416  13.757   5.682  0.0230  0.0422 -0.1730
    1DIPC   GL2 9472  20.262  13.456   5.604 -0.1418  0.0641 -0.2879
    1DIPC   C1A 9473  20.782  13.779   5.384 -0.0201  0.1655  0.3618
    1DIPC   D2A 9474  20.945  13.574   4.821 -0.0644  0.1223  0.2113
    1DIPC   D3A 9475  20.717  13.380   4.530  0.2281 -0.0600 -0.1655
    1DIPC   C4A 9476  20.440  13.539   4.238 -0.0954 -0.3133 -0.2034
    1DIPC   C1B 9477  20.127  13.185   5.331 -0.0550 -0.0108 -0.1054
    1DIPC   D2B 9478  20.020  12.962   4.934  0.1557 -0.3214  0.1257
    1DIPC   D3B 9479  19.607  12.756   4.904  0.2694 -0.2610 -0.0119
    1DIPC   C4B 9480  19.449  12.413   4.787 -0.1974  0.2558 -0.1694
    1DIPC   NC3 9481  20.313  24.249   6.316 -0.3281 -0.0089 -0.0736
    1DIPC   PO4 9482  19.934  24.154   6.052  0.1891  0.2344 -0.0683
    1DIPC   GL1 9483  19.881  24.007   5.679 -0.1239 -0.1988 -0.0386
    1DIPC   GL2 9484  19.656  23.769   5.519 -0.1874  0.3064 -0.1259
    1DIPC   C1A 9485  19.935  24.044   5.218 -0.1451 -0.0864 -0.1401
    1DIPC   D2A 9486  19.867  24.014   4.737  0.1217  0.1377  0.0764
    1DIPC   D3A 9487  20.192  24.086   4.530  0.2845  0.1600  0.1014
    1DIPC   C4A 9488  20.326  24.529   4.360 -0.1169  0.0106  0.0739
    1DIPC   C1B 9489  19.725  23.607   5.184  0.0441 -0.0360  0.0421
    1DIPC   D2B 9490  19.657  23.450   4.727  0.0040 -0.1775  0.0781
    1DIPC   D3B 9491  20.036  23.527   4.466  0.0271  0.1158  0.2244
    1DIPC   C4B 9492  19.921  23.391   4.011 -0.0770  0.1293  0.2532
    1DIPC   NC3 9493  11.398  16.119   6.605 -0.1044  0.0255 -0.0857
    1DIPC   PO4 9494  11.621  15.735   6.448 -0.0147 -0.0328  0.0108
    1DIPC   GL1 9495  11.561  15.527   6.110  0.1480 -0.0425 -0.1389
    1DIPC   GL2 9496  11.332  15.369   6.025 -0.1581 -0.2181 -0.0594
    1DIPC   C1A 9497  11.638  15.504   5.612  0.0608 -0.6407 -0.2514
    1DIPC   D2A 9498  11.599  15.543   5.169  0.0811  0.3025  0.2020
    1DIPC   D3A 9499  12.015  15.572   5.330 -0.1712  0.0087 -0.0401
    1DIPC   C4A 9500  12.328  15.383   5.087 -0.2178  0.1651 -0.0400
    1DIPC   C1B 9501  11.285  15.167   5.611 -0.2179  0.1667 -0.1353
    1DIPC   D2B 9502  11.321  15.126   5.151  0.0010  0.1132 -0.0826
    1DIPC   D3B 9503  11.586  15.050   5.047  0.0870 -0.1831 -0.2257
    1DIPC   C4B 9504  11.876  15.337   4.791 -0.1442  0.0191 -0.1096
    1DIPC   NC3 9505   9.492  16.633   6.173 -0.1371  0.0937 -0.0288
    1DIPC   PO4 9506   9.141  16.776   5.932  0.2253 -0.1927 -0.2819
    1DIPC   GL1 9507   8.862  16.622   5.666 -0.3431 -0.0453 -0.4236
    1DIPC   GL2 9508   8.809  16.283   5.648  0.0264 -0.2721 -0.0302
    1DIPC   C1A 9509   8.744  16.647   5.245  0.1538 -0.2070 -0.1891
    1DIPC   D2A 9510   8.602  16.551   4.822 -0.3674 -0.1378  0.0263
    1DIPC   D3A 9511   8.213  16.717   4.790  0.0754 -0.1516  0.0865
    1DIPC   C4A 9512   7.933  16.770   4.373 -0.2223 -0.2973 -0.0349
    1DIPC   C1B 9513   8.866  15.983   5.626  0.1951 -0.2184 -0.4095
    1DIPC   D2B 9514   8.970  15.511   5.496  0.1051 -0.2147 -0.1312
    1DIPC   D3B 9515   9.074  15.700   5.046 -0.0165  0.0637  0.0674
    1DIPC   C4B 9516   9.348  15.395   4.841  0.1672 -0.1292  0.2780
    1DIPC   NC3 9517   3.842  25.536   6.705  0.3754  0.2088 -0.0285
    1DIPC   PO4 9518   3.938  25.225   6.503 -0.0314  0.0497 -0.1870
    1DIPC   GL1 9519   3.662  25.374   6.183  0.1054 -0.0014 -0.1700
    1DIPC   GL2 9520   3.582  25.323   5.954  0.0719 -0.0430  0.0993
    1DIPC   C1A 9521   3.237  25.580   6.239 -0.0824 -0.2543 -0.0772
    1DIPC   D2A 9522   2.865  25.600   5.983  0.1265 -0.1367  0.0367
    1DIPC   D3A 9523   3.229  25.522   5.655 -0.1378  0.0214 -0.1532
    1DIPC   C4A 9524   3.208  25.713   5.253  0.0138  0.0230 -0.0071
    1DIPC   C1B 9525   3.582  25.150   5.516  0.1939 -0.1253  0.0149
    1DIPC   D2B 9526   3.684  25.431   5.133  0.1248  0.0859 -0.5859
    1DIPC   D3B 9527   3.630  25.893   4.877 -0.3368 -0.0340 -0.0066
    1DIPC   C4B 9528   3.500  26.192   5.246 -0.1722  0.1109  0.4435
    1DIPC   NC3 9529  28.730  29.812   7.402  0.0957 -0.0245  0.2457
    1DIPC   PO4 9530  28.926  29.511   7.171 -0.0042  0.1439  0.2394
    1DIPC   GL1 9531  29.047  29.358   6.804 -0.4141 -0.2140  0.1552
    1DIPC   GL2 9532  29.361  29.408   6.726  0.3575  0.1086 -0.0124
    1DIPC   C1A 9533  28.902  29.184   6.422  0.0193 -0.2819  0.0143
    1DIPC   D2A 9534  28.746  29.141   6.058  0.0435  0.2070  0.2006
    1DIPC   D3A 9535  28.686  28.874   5.668 -0.0250 -0.0258  0.0150
    1DIPC   C4A 9536  29.020  28.572   5.617 -0.0180 -0.0419  0.2065
    1DIPC   C1B 9537  29.416  29.133   6.344  0.3555  0.3106  0.0873
    1DIPC   D2B 9538  29.322  29.057   5.889  0.0125  0.1836  0.0888
    1DIPC   D3B 9539  29.399  29.478   5.724 -0.2448  0.2640  0.2000
    1DIPC   C4B 9540  29.817  29.681   5.553  0.1719  0.0556  0.1317
    1DIPC   NC3 9541  21.832  18.272   5.471 -0.1183 -0.0285  0.1318
    1DIPC   PO4 9542  21.521  18.508   5.730 -0.1339  0.1197 -0.1262
    1DIPC   GL1 9543  21.701  18.760   5.381 -0.0305  0.0164 -0.0528
    1DIPC   GL2 9544  21.553  18.533   5.085 -0.1250 -0.0216  0.0663
    1DIPC   C1A 9545  21.716  18.967   4.923 -0.0554  0.1851 -0.1384
    1DIPC   D2A 9546  21.631  19.052   4.504 -0.1781  0.0246 -0.0704
    1DIPC   D3A 9547  21.425  18.952   4.179 -0.0395 -0.1345 -0.0873
    1DIPC   C4A 9548  21.144  19.282   4.024 -0.1793  0.1007  0.1594
    1DIPC   C1B 9549  21.607  18.544   4.609  0.2495  0.0757 -0.0895
    1DIPC   D2B 9550  21.521  18.449   4.193  0.0703  0.0591 -0.1491
    1DIPC   D3B 9551  21.261  18.396   3.818  0.2955 -0.1689 -0.1993
    1DIPC   C4B 9552  21.241  18.721   3.600 -0.3561 -0.0421 -0.0002
    1DIPC   NC3 9553   0.080   6.302   6.343 -0.0208  0.0497 -0.1585
    1DIPC   PO4 9554   0.223   5.998   6.558 -0.0376  0.2017 -0.1929
    1DIPC   GL1 9555   0.394   5.865   6.215 -0.0654  0.1169 -0.0658
    1DIPC   GL2 9556   0.196   5.576   6.179 -0.4010 -0.1418  0.0090
    1DIPC   C1A 9557   0.650   5.505   5.839  0.0406 -0.0048 -0.1782
    1DIPC   D2A 9558   0.657   5.506   5.393 -0.1571  0.0524  0.1785
    1DIPC   D3A 9559   0.745   5.060   5.164  0.1690  0.0824  0.0291
    1DIPC   C4A 9560   0.959   4.686   5.168 -0.0028  0.0811  0.1179
    1DIPC   C1B 9561   0.082   5.516   5.701  0.5087 -0.0400 -0.3688
    1DIPC   D2B 9562  29.994   5.491   5.478  0.3936  0.1607 -0.0088
    1DIPC   D3B 9563  30.226   5.255   5.211  0.1887  0.0684  0.0842
    1DIPC   C4B 9564   0.225   5.659   5.113 -0.3207 -0.0777  0.0013
    1DIPC   NC3 9565  12.022   1.239   6.500  0.1158  0.0195 -0.0092
    1DIPC   PO4 9566  12.338   1.154   6.200 -0.2228  0.0949 -0.0348
    1DIPC   GL1 9567  12.485   0.825   5.994 -0.0926 -0.1048 -0.3448
    1DIPC   GL2 9568  12.376   0.561   5.934 -0.2645 -0.0732 -0.0309
    1DIPC   C1A 9569  12.748   0.680   5.630 -0.0660 -0.0451  0.0827
    1DIPC   D2A 9570  13.158   0.709   5.333 -0.2096  0.1204  0.2382
    1DIPC   D3A 9571  12.894   0.509   5.053  0.1480  0.2168  0.0618
    1DIPC   C4A 9572  12.918   0.158   4.730 -0.0776 -0.0370 -0.0927
    1DIPC   C1B 9573  12.451   0.248   5.514  0.1637  0.0978  0.0836
    1DIPC   D2B 9574  12.622  30.355   5.202 -0.1323 -0.0583 -0.3146
    1DIPC   D3B 9575  12.340   0.372   5.057 -0.1528 -0.2242  0.0138
    1DIPC   C4B 9576  12.421   0.791   5.293  0.1749 -0.1082 -0.1776
    1DIPC   NC3 9577  24.947  13.507   6.445  0.0992  0.0361 -0.0816
    1DIPC   PO4 9578  25.096  13.052   6.299  0.2132  0.0083 -0.0717
    1DIPC   GL1 9579  25.101  13.029   5.841  0.3653 -0.0698 -0.0719
    1DIPC   GL2 9580  25.418  13.107   5.734  0.3093 -0.0879  0.0569
    1DIPC   C1A 9581  24.959  12.851   5.475 -0.0620  0.1988  0.2635
    1DIPC   D2A 9582  24.850  12.830   5.064 -0.3669  0.2051 -0.3305
    1DIPC   D3A 9583  24.811  13.236   5.068 -0.3099  0.1712 -0.1817
    1DIPC   C4A 9584  24.598  13.342   5.391  0.1354 -0.0780 -0.2786
    1DIPC   C1B 9585  25.438  12.988   5.406  0.2849 -0.3276 -0.0654
    1DIPC   D2B 9586  25.313  13.020   4.971 -0.2135  0.0615  0.0368
    1DIPC   D3B 9587  25.321  12.614   4.932 -0.1243 -0.0442 -0.0991
    1DIPC   C4B 9588  25.114  12.432   4.488 -0.0078 -0.1926  0.2877
    1DIPC   NC3 9589  13.600  26.269   7.306 -0.0987 -0.0570 -0.1483
    1DIPC   PO4 9590  13.835  26.458   6.999  0.4664  0.0352 -0.0095
    1DIPC   GL1 9591  13.954  26.215   6.655  0.1051  0.1071  0.0276
    1DIPC   GL2 9592  14.243  26.108   6.584 -0.1608  0.1678 -0.2117
    1DIPC   C1A 9593  13.896  26.263   6.247 -0.1826 -0.1598 -0.2533
    1DIPC   D2A 9594  13.439  26.391   6.098 -0.0590  0.0791  0.0023
    1DIPC   D3A 9595  13.802  26.754   6.178  0.0744  0.0208  0.1851
    1DIPC   C4A 9596  14.236  26.619   6.104 -0.0075 -0.1339  0.2021
    1DIPC   C1B 9597  14.554  26.340   6.430 -0.4594 -0.1693 -0.2575
    1DIPC   D2B 9598  14.747  26.508   6.005 -0.1493  0.2657 -0.0040
    1DIPC   D3B 9599  14.645  26.318   5.710  0.0914 -0.0995 -0.0703
    1DIPC   C4B 9600  14.735  25.884   5.732  0.0227  0.0580  0.0467
    1DIPC   NC3 9601  15.837   0.767   6.319  0.1026  0.3029 -0.0936
    1DIPC   PO4 9602  16.223   0.669   6.096 -0.1234  0.1991  0.0664
    1DIPC   GL1 9603  16.368   0.581   5.687  0.0243  0.1623  0.1173
    1DIPC   GL2 9604  16.665   0.679   5.614  0.1040  0.1431 -0.1123
    1DIPC   C1A 9605  16.382   0.509   5.270  0.0044 -0.0162  0.0284
    1DIPC   D2A 9606  16.505   0.407   4.894  0.0978  0.0709 -0.1689
    1DIPC   D3A 9607  16.796   0.270   5.237 -0.2114  0.2936  0.1752
    1DIPC   C4A 9608  17.163  30.308   5.100  0.1325 -0.0698 -0.0635
    1DIPC   C1B 9609  16.797   0.767   5.180  0.2407 -0.4368  0.1052
    1DIPC   D2B 9610  16.933   0.660   4.770 -0.1407 -0.0544  0.1568
    1DIPC   D3B 9611  17.049   0.213   4.605 -0.0539 -0.1364  0.3388
    1DIPC   C4B 9612  16.746  30.247   4.845  0.4182  0.0488  0.1965
    1DIPC   NC3 9613  13.406  17.857   6.604 -0.2685 -0.2773 -0.1643
    1DIPC   PO4 9614  13.732  18.007   6.302 -0.0907  0.0221  0.1688
    1DIPC   GL1 9615  13.775  17.850   5.882  0.2889 -0.0234 -0.1282
    1DIPC   GL2 9616  13.657  17.610   5.676 -0.1553  0.3560 -0.0989
    1DIPC   C1A 9617  13.980  17.844   5.457 -0.1938 -0.0351  0.0137
    1DIPC   D2A 9618  14.065  17.713   4.991 -0.0599 -0.3132  0.0091
    1DIPC   D3A 9619  13.648  17.750   4.836 -0.0954 -0.0433  0.3249
    1DIPC   C4A 9620  13.494  18.005   4.399 -0.0628 -0.0351  0.2110
    1DIPC   C1B 9621  13.629  17.424   5.256 -0.0877 -0.0864 -0.0497
    1DIPC   D2B 9622  13.849  17.270   4.831  0.1647 -0.2430 -0.1839
    1DIPC   D3B 9623  14.304  17.394   4.647 -0.0119  0.2104 -0.3739
    1DIPC   C4B 9624  14.367  17.838   4.519  0.2554 -0.1191  0.2461
    1DIPC   NC3 9625   0.612  23.965   7.249  0.2957  0.0187 -0.0056
    1DIPC   PO4 9626   0.612  23.938   6.826  0.0515  0.3021  0.0969
    1DIPC   GL1 9627   0.742  24.148   6.497  0.2148  0.0759  0.0650
    1DIPC   GL2 9628   0.480  24.368   6.379 -0.0837 -0.2112  0.1726
    1DIPC   C1A 9629   0.984  24.450   6.256 -0.2593  0.1174  0.1036
    1DIPC   D2A 9630   0.750  24.432   5.866  0.0146 -0.0377 -0.2096
    1DIPC   D3A 9631   0.601  24.863   6.054 -0.0567  0.0262 -0.0191
    1DIPC   C4A 9632   1.012  25.000   6.204 -0.0111 -0.1451 -0.0015
    1DIPC   C1B 9633   0.264  24.239   5.979  0.3492 -0.1213  0.0886
    1DIPC   D2B 9634  30.280  24.279   5.723 -0.2148  0.0415 -0.4229
    1DIPC   D3B 9635  30.261  24.126   5.357  0.1752 -0.1209 -0.1610
    1DIPC   C4B 9636  30.304  24.328   4.920  0.3985 -0.0622  0.1730
    1DIPC   NC3 9637  21.016   9.890   5.891  0.0662  0.1294 -0.2956
    1DIPC   PO4 9638  21.300   9.548   5.794  0.0471  0.1022  0.2143
    1DIPC   GL1 9639  21.650   9.510   5.496  0.0934 -0.1233 -0.2298
    1DIPC   GL2 9640  21.526   9.561   5.231  0.2756  0.2309  0.0839
    1DIPC   C1A 9641  22.020   9.694   5.399 -0.1471  0.0591 -0.0770
    1DIPC   D2A 9642  22.303  10.052   5.382  0.1218 -0.1477 -0.2405
    1DIPC   D3A 9643  22.751  10.253   5.494  0.0047 -0.0071 -0.1115
    1DIPC   C4A 9644  22.968  10.567   5.270  0.0936 -0.0872 -0.2068
    1DIPC   C1B 9645  21.145   9.402   5.047 -0.1044  0.2348  0.0925
    1DIPC   D2B 9646  20.786   9.239   4.898 -0.2928 -0.2074  0.2760
    1DIPC   D3B 9647  20.683   9.541   4.547 -0.0324  0.3221  0.1593
    1DIPC   C4B 9648  20.544   9.337   4.137 -0.2793 -0.0594 -0.3385
    1DIPC   NC3 9649  15.529  18.169   6.105 -0.2875 -0.0581 -0.1135
    1DIPC   PO4 9650  15.951  18.206   6.135  0.2062  0.1146 -0.1100
    1DIPC   GL1 9651  15.885  18.166   5.670 -0.2877  0.0096 -0.0523
    1DIPC   GL2 9652  15.585  18.091   5.535  0.0745 -0.3025 -0.2087
    1DIPC   C1A 9653  16.151  18.268   5.291 -0.1220 -0.0667  0.1744
    1DIPC   D2A 9654  16.341  18.352   4.798 -0.2105  0.0391 -0.0054
    1DIPC   D3A 9655  15.999  18.460   4.453 -0.1240 -0.1780  0.2725
    1DIPC   C4A 9656  15.918  18.473   4.040  0.0239  0.4579 -0.2436
    1DIPC   C1B 9657  15.398  17.788   5.476 -0.1573  0.0476  0.0487
    1DIPC   D2B 9658  15.048  17.448   5.676 -0.1119  0.2764 -0.0281
    1DIPC   D3B 9659  15.144  17.176   5.444 -0.2222 -0.0333 -0.2724
    1DIPC   C4B 9660  15.463  17.298   5.168 -0.0253  0.0423  0.0252
    1DIPC   NC3 9661   5.576  14.739   6.966  0.3071  0.3066 -0.1812
    1DIPC   PO4 9662   5.165  14.839   6.765  0.3028  0.2160  0.0688
    1DIPC   GL1 9663   5.035  14.432   6.510  0.1318  0.0116 -0.2565
    1DIPC   GL2 9664   4.838  14.613   6.210 -0.3377  0.0867 -0.0353
    1DIPC   C1A 9665   5.222  14.192   6.131  0.0632 -0.0605  0.2690
    1DIPC   D2A 9666   5.428  13.897   5.901 -0.0378 -0.2398 -0.2153
    1DIPC   D3A 9667   5.224  14.114   5.517  0.2346  0.1430 -0.2171
    1DIPC   C4A 9668   5.355  14.411   5.220 -0.1077  0.0084 -0.3396
    1DIPC   C1B 9669   5.264  14.712   6.096 -0.1010 -0.0573  0.0546
    1DIPC   D2B 9670   5.656  14.994   5.921  0.0494  0.0055 -0.2195
    1DIPC   D3B 9671   5.767  15.059   5.491  0.1128  0.0800 -0.2053
    1DIPC   C4B 9672   5.426  14.910   5.304  0.0485  0.0134  0.1985
    1DIPC   NC3 9673  15.365   7.891   6.508  0.0483  0.2193  0.0848
    1DIPC   PO4 9674  15.682   8.031   6.071 -0.1782 -0.0949  0.0164
    1DIPC   GL1 9675  15.672   8.185   5.652  0.1608  0.0874  0.2526
    1DIPC   GL2 9676  15.656   7.917   5.388 -0.1470 -0.1333  0.4542
    1DIPC   C1A 9677  15.544   8.580   5.362  0.0992  0.0238  0.1994
    1DIPC   D2A 9678  15.641   8.765   5.093  0.1385  0.1695 -0.1405
    1DIPC   D3A 9679  15.337   9.043   4.988 -0.0582 -0.1371  0.1773
    1DIPC   C4A 9680  15.428   9.449   4.795 -0.2326  0.0093 -0.0932
    1DIPC   C1B 9681  15.421   8.175   5.077 -0.0073  0.0333 -0.1070
    1DIPC   D2B 9682  15.200   8.585   4.863 -0.1402 -0.1297 -0.0064
    1DIPC   D3B 9683  15.167   8.931   4.507  0.1992 -0.1376 -0.1512
    1DIPC   C4B 9684  15.258   9.369   4.338  0.1139 -0.0947  0.2313
    1DIPC   NC3 9685  25.721  24.963   6.250  0.1901 -0.0855  0.1051
    1DIPC   PO4 9686  25.651  24.606   6.322  0.2465 -0.1184 -0.3207
    1DIPC   GL1 9687  25.787  24.666   5.870  0.0132  0.0330  0.0911
    1DIPC   GL2 9688  26.043  24.964   5.799 -0.1209 -0.0956 -0.0299
    1DIPC   C1A 9689  25.658  24.468   5.468 -0.1683  0.5757  0.0429
    1DIPC   D2A 9690  25.738  24.255   4.978 -0.1566  0.4021  0.0872
    1DIPC   D3A 9691  26.079  24.247   4.568 -0.1555 -0.4198  0.2477
    1DIPC   C4A 9692  26.412  24.622   4.379 -0.3021  0.2713 -0.3326
    1DIPC   C1B 9693  26.078  24.852   5.400 -0.0574 -0.0586  0.1456
    1DIPC   D2B 9694  25.889  24.757   5.122  0.1900  0.1162  0.0449
    1DIPC   D3B 9695  26.248  24.664   4.896 -0.1893  0.0326  0.4046
    1DIPC   C4B 9696  26.502  24.949   4.710 -0.2191  0.1125 -0.1867
    1DIPC   NC3 9697  25.697   8.842   5.972 -0.1130 -0.2733  0.1429
    1DIPC   PO4 9698  25.976   9.165   6.101 -0.0271 -0.0985 -0.2176
    1DIPC   GL1 9699  26.288   9.235   5.750  0.0929 -0.0154  0.1024
    1DIPC   GL2 9700  26.287   9.534   5.702  0.0529 -0.1411  0.2271
    1DIPC   C1A 9701  26.573   8.918   5.559 -0.3262 -0.1050 -0.0544
    1DIPC   D2A 9702  26.712   8.375   5.849 -0.0830 -0.3028 -0.0699
    1DIPC   D3A 9703  26.457   8.296   5.533 -0.0307  0.2113  0.1049
    1DIPC   C4A 9704  26.574   8.398   4.992 -0.0424 -0.0711 -0.2349
    1DIPC   C1B 9705  26.034   9.706   5.390  0.0513 -0.3081 -0.1242
    1DIPC   D2B 9706  25.813   9.805   5.141  0.1973  0.0161  0.2224
    1DIPC   D3B 9707  25.964   9.463   4.861 -0.0172 -0.0577 -0.0972
    1DIPC   C4B 9708  25.810   9.124   4.696  0.2349 -0.0263 -0.1140
    1DIPC   NC3 9709  14.607   7.458   6.310  0.4026 -0.0880 -0.2922
    1DIPC   PO4 9710  14.915   7.713   6.131  0.1461 -0.4382  0.0364
    1DIPC   GL1 9711  14.855   7.677   5.650  0.0142 -0.0466  0.2072
    1DIPC   GL2 9712  14.551   7.870   5.772 -0.1747  0.3027 -0.1486
    1DIPC   C1A 9713  14.985   7.592   5.250  0.5537 -0.2975 -0.0272
    1DIPC   D2A 9714  14.795   7.501   4.808  0.3101 -0.0515  0.0265
    1DIPC   D3A 9715  14.713   7.801   4.485 -0.2547 -0.0945  0.2134
    1DIPC   C4A 9716  14.782   7.704   4.154  0.1818  0.1545  0.2749
    1DIPC   C1B 9717  14.473   7.763   5.342  0.0943  0.2827 -0.0941
    1DIPC   D2B 9718  14.368   7.692   4.862  0.1673  0.2495 -0.1398
    1DIPC   D3B 9719  13.992   7.839   4.714  0.2690  0.1534 -0.0179
    1DIPC   C4B 9720  13.979   8.216   4.508  0.1678 -0.0931  0.0750
    1DIPC   NC3 9721  18.826  16.262   6.614  0.3165  0.0964  0.0906
    1DIPC   PO4 9722  18.715  15.946   6.290 -0.1136 -0.0492 -0.3137
    1DIPC   GL1 9723  18.753  15.716   5.872 -0.1457  0.1240 -0.0096
    1DIPC   GL2 9724  18.575  15.710   5.749  0.0844  0.1075  0.0723
    1DIPC   C1A 9725  18.968  15.701   5.427  0.2151  0.0376 -0.1003
    1DIPC   D2A 9726  19.167  15.565   5.069  0.2878  0.1123  0.0211
    1DIPC   D3A 9727  18.940  15.488   4.670 -0.0408  0.2469  0.1796
    1DIPC   C4A 9728  18.519  15.574   4.546 -0.0553 -0.2106 -0.0015
    1DIPC   C1B 9729  18.485  15.909   5.366  0.0740 -0.0544 -0.0875
    1DIPC   D2B 9730  18.230  15.706   5.025  0.1023  0.0906  0.1410
    1DIPC   D3B 9731  18.046  15.421   4.785  0.2106 -0.3008  0.1756
    1DIPC   C4B 9732  18.200  15.145   4.508  0.0848 -0.2727 -0.1575
    1DIPC   NC3 9733   1.733  24.783   6.918 -0.2150 -0.1938 -0.1179
    1DIPC   PO4 9734   1.725  25.343   6.976 -0.1785  0.1360 -0.0144
    1DIPC   GL1 9735   1.555  25.649   6.670  0.0178  0.3298 -0.1451
    1DIPC   GL2 9736   1.224  25.450   6.478  0.0425 -0.0919  0.2136
    1DIPC   C1A 9737   1.376  25.939   6.361 -0.1168  0.0240 -0.2935
    1DIPC   D2A 9738   1.262  26.136   6.003 -0.2231  0.0546  0.2449
    1DIPC   D3A 9739   1.471  26.313   5.531 -0.3442  0.3143  0.1281
    1DIPC   C4A 9740   1.396  26.744   5.474  0.2742 -0.2507 -0.0120
    1DIPC   C1B 9741   1.292  25.496   6.061 -0.3366  0.0687 -0.3386
    1DIPC   D2B 9742   1.144  25.372   5.795  0.2258  0.0690  0.1867
    1DIPC   D3B 9743   1.453  25.033   5.822 -0.0331  0.1371  0.0308
    1DIPC   C4B 9744   1.217  24.662   5.849 -0.0879  0.0757  0.1311
    1DIPC   NC3 9745  22.821  30.122   6.990  0.1652 -0.0456  0.0823
    1DIPC   PO4 9746  23.266  30.091   6.848  0.3426 -0.0644 -0.1180
    1DIPC   GL1 9747  23.156  30.077   6.397  0.3299 -0.3158 -0.1778
    1DIPC   GL2 9748  22.884  29.859   6.387 -0.1577  0.1900  0.1695
    1DIPC   C1A 9749  23.223   0.135   6.059 -0.3931 -0.0611 -0.0656
    1DIPC   D2A 9750  23.692   0.182   5.822  0.2028 -0.2186 -0.0645
    1DIPC   D3A 9751  23.642   0.152   5.348  0.0012  0.2306  0.0807
    1DIPC   C4A 9752  23.491   0.484   5.118  0.0195  0.0570  0.1051
    1DIPC   C1B 9753  22.815  30.197   5.988  0.0406  0.1155  0.0839
    1DIPC   D2B 9754  23.198  30.279   5.585  0.2469  0.0464 -0.0012
    1DIPC   D3B 9755  23.582  29.930   5.512 -0.1046 -0.1618 -0.0322
    1DIPC   C4B 9756  23.832  30.048   5.158 -0.2050 -0.1698  0.0336
    1DIPC   NC3 9757  23.556   5.705   6.517  0.0580  0.1530 -0.1497
    1DIPC   PO4 9758  23.369   5.251   6.502 -0.4580  0.2256 -0.0063
    1DIPC   GL1 9759  23.647   5.260   6.112  0.3164 -0.0746  0.1279
    1DIPC   GL2 9760  23.887   5.358   6.324  0.0065  0.4995  0.1435
    1DIPC   C1A 9761  23.755   5.007   5.804 -0.0028  0.1163  0.0237
    1DIPC   D2A 9762  24.076   5.110   5.555  0.0638  0.1070 -0.0716
    1DIPC   D3A 9763  23.996   4.690   5.414  0.3545  0.1028 -0.2349
    1DIPC   C4A 9764  23.710   4.805   5.058  0.2474  0.1164 -0.0199
    1DIPC   C1B 9765  24.213   5.063   6.175 -0.0138 -0.2445  0.0716
    1DIPC   D2B 9766  24.497   4.923   5.888  0.0578 -0.2315  0.0875
    1DIPC   D3B 9767  24.227   4.666   5.882  0.0789 -0.1694  0.0775
    1DIPC   C4B 9768  24.464   4.390   5.679  0.1017 -0.0329 -0.0016
    1DIPC   NC3 9769   7.263  24.249   7.007 -0.0888 -0.0627  0.0293
    1DIPC   PO4 9770   7.307  24.358   6.549 -0.0781  0.0203  0.1206
    1DIPC   GL1 9771   7.119  24.457   6.289 -0.3286 -0.3082  0.1954
    1DIPC   GL2 9772   6.914  24.189   6.166  0.2124  0.1391  0.3128
    1DIPC   C1A 9773   7.221  24.384   5.830 -0.2112 -0.0845 -0.0201
    1DIPC   D2A 9774   7.548  24.243   5.462 -0.0756  0.0589 -0.0279
    1DIPC   D3A 9775   7.714  24.400   5.164 -0.0671  0.1503 -0.0849
    1DIPC   C4A 9776   7.688  24.564   4.703  0.1387 -0.0686  0.0037
    1DIPC   C1B 9777   6.562  24.085   5.888 -0.0889 -0.1511 -0.2286
    1DIPC   D2B 9778   6.467  23.854   5.600  0.1622 -0.2279 -0.0585
    1DIPC   D3B 9779   6.527  24.143   5.300  0.2335  0.0232 -0.3088
    1DIPC   C4B 9780   6.420  23.896   4.928 -0.0846  0.1115 -0.0320
    1DIPC   NC3 9781   7.689  19.805   5.794 -0.2852  0.0830  0.3295
    1DIPC   PO4 9782   8.028  20.029   5.893  0.1167 -0.0976  0.0383
    1DIPC   GL1 9783   8.239  20.298   5.536  0.0447  0.1295 -0.1023
    1DIPC   GL2 9784   8.410  20.027   5.511  0.0128  0.0833  0.1883
    1DIPC   C1A 9785   8.327  20.728   5.305  0.0428  0.0082  0.0335
    1DIPC   D2A 9786   8.368  20.969   5.000 -0.0118  0.0628  0.1962
    1DIPC   D3A 9787   8.022  21.017   4.821  0.2325  0.2368  0.0850
    1DIPC   C4A 9788   8.030  20.823   4.481  0.1725 -0.2539  0.2226
    1DIPC   C1B 9789   8.465  20.223   5.074 -0.1214 -0.0852 -0.2680
    1DIPC   D2B 9790   8.729  20.192   4.734 -0.1106  0.1209 -0.1314
    1DIPC   D3B 9791   8.457  20.494   4.660 -0.0122  0.3654  0.1863
    1DIPC   C4B 9792   8.056  20.469   4.931 -0.2394 -0.0681  0.1124
    1DIPC   NC3 9793  17.315   0.729   6.403 -0.3185 -0.2819 -0.1737
    1DIPC   PO4 9794  17.456   0.395   6.172 -0.0323  0.3352  0.0177
    1DIPC   GL1 9795  17.226   0.649   5.932  0.6131 -0.0636  0.1885
    1DIPC   GL2 9796  16.894   0.505   6.079  0.1509 -0.1957  0.0846
    1DIPC   C1A 9797  17.169   0.586   5.451 -0.4235 -0.2057 -0.1075
    1DIPC   D2A 9798  17.260   0.513   5.100  0.1378  0.0781 -0.1388
    1DIPC   D3A 9799  17.678   0.591   5.050 -0.2429  0.0288 -0.2226
    1DIPC   C4A 9800  17.973   0.471   4.804  0.0035  0.1118 -0.1202
    1DIPC   C1B 9801  16.818   0.204   5.693  0.2637  0.2276  0.2243
    1DIPC   D2B 9802  16.716  30.144   5.345 -0.2108  0.2425 -0.1800
    1DIPC   D3B 9803  16.953  29.910   5.218 -0.1453  0.0463 -0.0052
    1DIPC   C4B 9804  16.745  29.701   4.855 -0.2818 -0.1236 -0.2565
    1DIPC   NC3 9805   7.627  21.411   6.078 -0.0070 -0.1237  0.1334
    1DIPC   PO4 9806   7.746  20.954   5.962 -0.2384  0.3559  0.0361
    1DIPC   GL1 9807   7.737  21.228   5.580 -0.2112  0.0688 -0.1202
    1DIPC   GL2 9808   7.968  21.520   5.426  0.0561 -0.0634 -0.2475
    1DIPC   C1A 9809   7.722  21.175   5.142  0.2769  0.1475  0.0304
    1DIPC   D2A 9810   7.444  20.938   4.829  0.0710 -0.0959 -0.0671
    1DIPC   D3A 9811   7.540  20.916   4.433  0.2743  0.0066 -0.0669
    1DIPC   C4A 9812   7.847  21.225   4.272  0.1649  0.1249  0.1405
    1DIPC   C1B 9813   7.645  21.619   5.019  0.0888  0.1282 -0.3024
    1DIPC   D2B 9814   7.821  21.598   4.586 -0.1575 -0.2050 -0.0329
    1DIPC   D3B 9815   7.434  21.415   4.547  0.1903 -0.1271 -0.0875
    1DIPC   C4B 9816   7.317  21.818   4.465 -0.3202  0.0365  0.0199
    1DIPC   NC3 9817  22.054   5.611   6.549  0.2063  0.0938 -0.0103
    1DIPC   PO4 9818  22.059   6.002   6.273  0.2873  0.2691  0.2188
    1DIPC   GL1 9819  22.060   5.734   5.912 -0.3577  0.0845 -0.3749
    1DIPC   GL2 9820  22.161   5.411   6.114  0.3456  0.0216  0.3625
    1DIPC   C1A 9821  21.776   5.467   5.632 -0.1332 -0.0404 -0.0688
    1DIPC   D2A 9822  21.803   5.205   5.311  0.1347  0.0837  0.2076
    1DIPC   D3A 9823  21.528   5.191   5.009 -0.1859 -0.0865 -0.4719
    1DIPC   C4A 9824  21.265   5.527   4.787  0.0016  0.1884 -0.0693
    1DIPC   C1B 9825  22.516   5.281   6.025  0.4467  0.0335  0.2354
    1DIPC   D2B 9826  22.463   4.920   5.897 -0.1747 -0.3715  0.0262
    1DIPC   D3B 9827  22.067   4.940   5.828  0.0876 -0.1027  0.0161
    1DIPC   C4B 9828  21.682   4.765   5.680  0.2397  0.1909  0.1505
    1DIPC   NC3 9829   8.885  23.879   6.279 -0.0113  0.1889  0.1298
    1DIPC   PO4 9830   9.350  23.820   6.203 -0.1502  0.1187 -0.0683
    1DIPC   GL1 9831   9.174  23.902   5.862 -0.3269 -0.2020  0.2366
    1DIPC   GL2 9832   9.347  23.721   5.662  0.2767 -0.0797  0.0433
    1DIPC   C1A 9833   8.921  23.963   5.493  0.0561 -0.0031  0.3334
    1DIPC   D2A 9834   8.806  23.709   5.118  0.0192  0.3608 -0.0971
    1DIPC   D3A 9835   8.852  23.914   4.720  0.0040  0.0050  0.5339
    1DIPC   C4A 9836   8.544  23.834   4.420  0.0460 -0.0970  0.4938
    1DIPC   C1B 9837   9.547  24.023   5.482 -0.1589  0.1207  0.2238
    1DIPC   D2B 9838   9.796  24.297   5.237 -0.0289  0.2454 -0.1914
    1DIPC   D3B 9839   9.549  24.405   4.914  0.0315  0.1242 -0.2897
    1DIPC   C4B 9840   9.086  24.438   5.005 -0.0087 -0.0370  0.1048
    1DIPC   NC3 9841  23.020  12.602   6.197 -0.2320 -0.0742  0.0333
    1DIPC   PO4 9842  23.263  12.989   6.127  0.2005  0.0587  0.2789
    1DIPC   GL1 9843  23.205  13.242   5.808 -0.1739  0.0439  0.0348
    1DIPC   GL2 9844  23.030  13.490   5.763 -0.1686  0.2181 -0.3769
    1DIPC   C1A 9845  23.252  13.193   5.344  0.1531  0.0552 -0.0735
    1DIPC   D2A 9846  22.911  13.124   5.027  0.2920 -0.0641  0.1266
    1DIPC   D3A 9847  22.955  13.228   4.638  0.2038 -0.0839 -0.0095
    1DIPC   C4A 9848  22.722  13.605   4.686  0.0005  0.0630  0.0269
    1DIPC   C1B 9849  22.811  13.235   5.506  0.1655 -0.1139  0.0768
    1DIPC   D2B 9850  22.472  12.900   5.539  0.1489  0.0468  0.0445
    1DIPC   D3B 9851  22.276  12.747   5.263 -0.2211  0.0266  0.1440
    1DIPC   C4B 9852  21.875  12.612   5.282 -0.3205 -0.1246 -0.3065
    1DIPC   NC3 9853  13.120   5.292   6.091 -0.2489  0.0223  0.3526
    1DIPC   PO4 9854  12.911   5.626   6.037 -0.2743 -0.0626  0.1297
    1DIPC   GL1 9855  12.847   5.444   5.605  0.1798  0.2861 -0.1985
    1DIPC   GL2 9856  12.597   5.210   5.539  0.3679 -0.3648 -0.4066
    1DIPC   C1A 9857  13.034   5.241   5.195 -0.1583 -0.1477  0.1295
    1DIPC   D2A 9858  13.043   5.555   4.837  0.1792  0.1732  0.0368
    1DIPC   D3A 9859  12.959   5.720   4.438 -0.2367  0.1272 -0.2730
    1DIPC   C4A 9860  12.645   5.635   4.086  0.1545 -0.1712  0.0255
    1DIPC   C1B 9861  12.541   5.257   4.996 -0.0250 -0.0453 -0.3352
    1DIPC   D2B 9862  12.490   5.653   4.740  0.2110 -0.1673  0.1377
    1DIPC   D3B 9863  12.129   6.043   4.620  0.1943  0.1963 -0.4246
    1DIPC   C4B 9864  12.094   6.410   4.331 -0.3829 -0.0349  0.3108
    1DIPC   NC3 9865   8.373   3.014   6.103  0.1181 -0.1100 -0.0383
    1DIPC   PO4 9866   8.706   3.241   6.399 -0.1015 -0.1381  0.1484
    1DIPC   GL1 9867   8.472   3.575   6.071 -0.2785  0.0666  0.0628
    1DIPC   GL2 9868   8.230   3.853   6.123  0.0403 -0.0659 -0.4085
    1DIPC   C1A 9869   8.502   3.969   5.702 -0.1100  0.3668  0.0377
    1DIPC   D2A 9870   8.428   4.476   5.573 -0.1214  0.0879  0.3619
    1DIPC   D3A 9871   8.295   4.184   5.167 -0.1796 -0.0971  0.2591
    1DIPC   C4A 9872   8.609   3.899   4.883  0.0022  0.0251 -0.1038
    1DIPC   C1B 9873   8.074   3.633   5.772 -0.0602  0.1743 -0.1290
    1DIPC   D2B 9874   8.373   3.619   5.340  0.0869 -0.1358  0.1881
    1DIPC   D3B 9875   8.686   3.488   5.610 -0.1288 -0.0701  0.0727
    1DIPC   C4B 9876   9.211   3.465   5.531 -0.2358  0.1631 -0.1788
    1DIPC   NC3 9877  17.005   6.873   5.444 -0.0535 -0.0272 -0.5625
    1DIPC   PO4 9878  16.526   6.781   5.307 -0.4106 -0.1063 -0.0518
    1DIPC   GL1 9879  16.655   7.180   5.063 -0.0817 -0.0044  0.0814
    1DIPC   GL2 9880  16.413   7.295   5.062  0.2187  0.3590 -0.0373
    1DIPC   C1A 9881  16.788   7.568   4.838 -0.1566 -0.2509  0.0359
    1DIPC   D2A 9882  16.739   8.043   4.707  0.3438 -0.1977 -0.4138
    1DIPC   D3A 9883  16.918   8.398   4.931  0.1170 -0.1270  0.0492
    1DIPC   C4A 9884  16.870   8.665   5.311 -0.1924 -0.1818  0.1317
    1DIPC   C1B 9885  16.380   7.189   4.637  0.2203 -0.3258 -0.0195
    1DIPC   D2B 9886  16.039   7.094   4.326  0.1033  0.1127 -0.6119
    1DIPC   D3B 9887  16.073   6.988   3.894 -0.1088  0.2894  0.2431
    1DIPC   C4B 9888  15.858   7.228   3.644  0.1083  0.0581 -0.1220
    1DIPC   NC3 9889  16.527   0.215   6.382 -0.1769 -0.0856 -0.0326
    1DIPC   PO4 9890  16.381  30.127   6.318 -0.0697 -0.0468  0.2944
    1DIPC   GL1 9891  16.281  30.292   5.915 -0.1141  0.0018 -0.0294
    1DIPC   GL2 9892  16.367  29.974   5.840 -0.1134  0.1357 -0.0934
    1DIPC   C1A 9893  16.289   0.107   5.564 -0.4479 -0.1438 -0.0747
    1DIPC   D2A 9894  16.135   0.070   5.092 -0.0873 -0.1221 -0.0395
    1DIPC   D3A 9895  15.996   0.449   4.918  0.0122 -0.2394  0.1078
    1DIPC   C4A 9896  15.887   0.712   5.148  0.0599  0.0915  0.1091
    1DIPC   C1B 9897  16.077  29.689   5.884 -0.0004  0.0993 -0.0950
    1DIPC   D2B 9898  15.655  29.657   5.710  0.3096 -0.0285 -0.1622
    1DIPC   D3B 9899  15.503  29.950   5.381  0.0965  0.0434  0.2015
    1DIPC   C4B 9900  15.782  30.000   5.019 -0.0582 -0.0901  0.2134
    1DIPC   NC3 9901  25.546  28.448   7.669  0.1076 -0.1228 -0.0313
    1DIPC   PO4 9902  25.641  28.377   7.186  0.1144 -0.0282  0.2077
    1DIPC   GL1 9903  25.444  28.536   6.886 -0.3089  0.1330  0.1092
    1DIPC   GL2 9904  25.556  28.351   6.735 -0.0822  0.0828 -0.0535
    1DIPC   C1A 9905  25.340  28.795   6.648 -0.2078  0.0934 -0.0377
    1DIPC   D2A 9906  25.247  28.848   6.219 -0.2016  0.3825  0.1139
    1DIPC   D3A 9907  25.263  28.357   6.182  0.1467  0.1989  0.2931
    1DIPC   C4A 9908  25.283  28.190   5.852 -0.2495  0.1045 -0.0243
    1DIPC   C1B 9909  25.712  28.548   6.263 -0.1679  0.0449 -0.1591
    1DIPC   D2B 9910  25.588  28.591   5.830 -0.1022  0.1896 -0.1095
    1DIPC   D3B 9911  25.678  29.110   5.824  0.1956 -0.2785 -0.3755
    1DIPC   C4B 9912  25.306  29.347   5.898  0.0326 -0.0052 -0.0689
    1DIPC   NC3 9913   0.116   6.990   6.896 -0.0033 -0.1750 -0.2515
    1DIPC   PO4 9914   0.041   6.727   6.610  0.2177  0.1887 -0.0744
    1DIPC   GL1 9915  30.335   6.781   6.149  0.0619 -0.1683 -0.4458
    1DIPC   GL2 9916   0.335   6.765   6.126  0.0438 -0.0945  0.0529
    1DIPC   C1A 9917   0.020   6.866   5.771 -0.3279 -0.2563  0.1056
    1DIPC   D2A 9918   0.317   6.885   5.493  0.1886 -0.0690  0.2448
    1DIPC   D3A 9919   0.188   6.998   5.089  0.0082 -0.2651 -0.0886
    1DIPC   C4A 9920   0.474   6.962   4.797 -0.0807 -0.2795  0.2885
    1DIPC   C1B 9921   0.517   7.190   5.816  0.3636  0.4172 -0.3569
    1DIPC   D2B 9922   0.623   7.301   5.419  0.4436 -0.2191  0.0660
    1DIPC   D3B 9923   0.737   7.678   5.428 -0.2127  0.3111 -0.1537
    1DIPC   C4B 9924   0.687   7.992   5.062  0.1935 -0.2485 -0.2285
    1DIPC   NC3 9925  16.941   1.698   6.479  0.0219  0.0964  0.2584
    1DIPC   PO4 9926  16.574   2.005   6.585  0.1302  0.1585  0.2158
    1DIPC   GL1 9927  16.519   2.092   6.182  0.0017 -0.0262  0.1119
    1DIPC   GL2 9928  16.738   1.983   6.037  0.1123  0.3594  0.0328
    1DIPC   C1A 9929  16.261   2.296   5.923 -0.1693 -0.1799  0.0815
    1DIPC   D2A 9930  15.853   2.388   5.747  0.3320 -0.2759  0.1065
    1DIPC   D3A 9931  15.573   2.061   5.916 -0.1029 -0.2004 -0.2110
    1DIPC   C4A 9932  15.133   1.869   5.838  0.1788  0.1009 -0.0225
    1DIPC   C1B 9933  16.774   2.308   5.792 -0.0824  0.0566  0.0911
    1DIPC   D2B 9934  17.044   2.543   5.598 -0.0579  0.5711 -0.1555
    1DIPC   D3B 9935  16.832   2.566   5.198 -0.0718 -0.1091 -0.2313
    1DIPC   C4B 9936  16.525   2.723   5.045 -0.2692  0.1987  0.1180
    1DIPC   NC3 9937  29.218   6.459   6.227 -0.0996 -0.1095 -0.0994
    1DIPC   PO4 9938  29.674   6.467   6.497 -0.1229 -0.2784  0.0821
    1DIPC   GL1 9939  29.771   6.597   6.095  0.0507  0.2728  0.0779
    1DIPC   GL2 9940  29.985   6.404   6.125  0.2082 -0.1911 -0.2509
    1DIPC   C1A 9941  29.819   6.777   5.618  0.2835 -0.1149 -0.0742
    1DIPC   D2A 9942  30.071   6.876   5.260  0.0794 -0.2656  0.0265
    1DIPC   D3A 9943  29.656   6.825   5.076 -0.3820 -0.3450 -0.1064
    1DIPC   C4A 9944  29.381   7.102   4.808  0.2631  0.1281 -0.0388
    1DIPC   C1B 9945  29.993   6.301   5.700 -0.0907 -0.3292  0.2063
    1DIPC   D2B 9946  30.248   5.925   5.437 -0.2208 -0.0460  0.1617
    1DIPC   D3B 9947  30.041   5.722   5.024  0.1436 -0.3313 -0.0909
    1DIPC   C4B 9948  30.153   5.696   4.688  0.1002  0.0914  0.1141
    1DIPC   NC3 9949  30.199  29.573   7.068 -0.2197 -0.0230  0.1760
    1DIPC   PO4 9950  30.121  29.984   7.161 -0.2929 -0.1178  0.0999
    1DIPC   GL1 9951  30.019  29.891   6.653  0.0523  0.1265  0.2862
    1DIPC   GL2 9952  29.986  30.152   6.658 -0.1655  0.0197 -0.0815
    1DIPC   C1A 9953  30.008  29.988   6.212  0.1171  0.0412  0.0077
    1DIPC   D2A 9954  29.906  30.205   5.839 -0.0321 -0.1210  0.2408
    1DIPC   D3A 9955  29.536  29.997   5.768  0.0318 -0.0882 -0.2547
    1DIPC   C4A 9956  29.327  29.829   5.383 -0.0413 -0.0703 -0.3368
    1DIPC   C1B 9957  30.277   0.003   6.473  0.1233 -0.0567  0.3114
    1DIPC   D2B 9958  30.199   0.325   6.150 -0.1083 -0.0281 -0.2364
    1DIPC   D3B 9959   0.066   0.383   5.786 -0.1152 -0.3277  0.1635
    1DIPC   C4B 9960   0.233   0.734   5.632 -0.1446  0.1600  0.0800
    1DIPC   NC3 9961  16.109   1.718   6.399 -0.1584 -0.2133  0.3531
    1DIPC   PO4 9962  16.499   1.543   6.142  0.0130  0.0234 -0.0512
    1DIPC   GL1 9963  16.482   1.618   5.671 -0.4376  0.0373  0.0680
    1DIPC   GL2 9964  16.510   1.290   5.640  0.1995 -0.0959 -0.1785
    1DIPC   C1A 9965  16.084   1.567   5.263 -0.3466  0.1461  0.1262
    1DIPC   D2A 9966  16.120   1.391   4.844 -0.0369 -0.1152  0.4664
    1DIPC   D3A 9967  16.409   1.372   4.625  0.0628  0.1580 -0.0349
    1DIPC   C4A 9968  16.704   1.153   4.864 -0.2341  0.0220 -0.2842
    1DIPC   C1B 9969  16.427   1.085   5.311  0.2310 -0.1053  0.1313
    1DIPC   D2B 9970  16.249   0.915   4.951 -0.1579  0.0305 -0.0362
    1DIPC   D3B 9971  15.818   1.015   4.647 -0.2711  0.0549 -0.5921
    1DIPC   C4B 9972  15.667   1.398   4.649 -0.3705 -0.0028  0.0034
    1DIPC   NC3 9973  29.063  25.276   7.124  0.1235  0.1582  0.1073
    1DIPC   PO4 9974  29.143  25.253   6.745  0.1015  0.0443 -0.2529
    1DIPC   GL1 9975  29.014  25.424   6.440  0.0535  0.0764 -0.0015
    1DIPC   GL2 9976  29.246  25.701   6.358 -0.0946 -0.0597 -0.0934
    1DIPC   C1A 9977  29.016  25.300   6.006  0.0733 -0.2164  0.0878
    1DIPC   D2A 9978  28.895  25.319   5.656 -0.2430  0.0674  0.3276
    1DIPC   D3A 9979  28.899  25.394   5.187 -0.1720  0.0366 -0.0898
    1DIPC   C4A 9980  29.081  25.649   4.886  0.1513  0.0129  0.1535
    1DIPC   C1B 9981  29.176  25.839   5.945 -0.1454 -0.4084 -0.0540
    1DIPC   D2B 9982  29.345  25.970   5.513 -0.2344 -0.0462 -0.1584
    1DIPC   D3B 9983  28.934  25.866   5.504  0.1457 -0.1639 -0.0956
    1DIPC   C4B 9984  28.748  26.092   5.121  0.1305 -0.2142  0.0873
    1DIPC   NC3 9985  14.945  10.889   7.080 -0.1796  0.0769 -0.1228
    1DIPC   PO4 9986  14.809  10.486   6.874 -0.0349  0.2453  0.0046
    1DIPC   GL1 9987  14.788  10.681   6.439 -0.0730  0.2044  0.1458
    1DIPC   GL2 9988  15.011  10.864   6.416  0.0047  0.0984  0.2318
    1DIPC   C1A 9989  14.574  11.075   6.236 -0.2364  0.0278  0.3279
    1DIPC   D2A 9990  14.690  11.402   5.896  0.3153 -0.3380  0.0467
    1DIPC   D3A 9991  15.160  11.509   5.780 -0.0092  0.1664 -0.0030
    1DIPC   C4A 9992  15.235  11.905   5.574 -0.3994  0.4568  0.0365
    1DIPC   C1B 9993  14.977  10.862   5.976  0.1264 -0.1363  0.0699
    1DIPC   D2B 9994  14.809  11.040   5.561 -0.1116 -0.3016  0.0469
    1DIPC   D3B 9995  14.792  11.480   5.418  0.0004 -0.1831 -0.2717
    1DIPC   C4B 9996  15.024  11.686   5.148  0.3675 -0.1396  0.0123
    1DIPC   NC3 9997  12.970  23.760   6.287  0.3015 -0.1046 -0.0576
    1DIPC   PO4 9998  13.394  23.952   6.463 -0.1240  0.4075  0.0862
    1DIPC   GL1 9999  13.524  24.004   6.076 -0.1519  0.2905  0.0640
    1DIPC   GL210000  13.785  24.200   6.098  0.2932  0.0640  0.2395
    1DIPC   C1A10001  13.344  23.875   5.668 -0.2204 -0.0773  0.1378
    1DIPC   D2A10002  13.603  23.655   5.417 -0.0489  0.3446  0.1170
    1DIPC   D3A10003  13.508  23.558   4.904 -0.1867  0.0651 -0.1013
    1DIPC   C4A10004  13.139  23.405   4.751 -0.1153 -0.1754  0.0341
    1DIPC   C1B10005  13.846  23.985   5.666  0.2324  0.0023  0.3745
    1DIPC   D2B10006  14.089  23.521   5.562 -0.1952 -0.2217  0.1889
    1DIPC   D3B10007  13.725  23.180   5.582 -0.0080 -0.3384 -0.0790
    1DIPC   C4B10008  13.288  23.297   5.643 -0.4320 -0.0581  0.0845
    1DIPC   NC310009  12.633   8.781   6.851  0.1581  0.1757  0.3762
    1DIPC   PO410010  12.738   8.303   6.782 -0.0639  0.0645  0.1195
    1DIPC   GL110011  12.892   8.549   6.450  0.0982  0.0232 -0.1531
    1DIPC   GL210012  12.973   8.822   6.450  0.3690  0.2192  0.1304
    1DIPC   C1A10013  13.061   8.618   6.025 -0.2820  0.0764 -0.4155
    1DIPC   D2A10014  12.926   8.917   5.711 -0.2097  0.0973 -0.1444
    1DIPC   D3A10015  12.948   8.911   5.254  0.1031  0.3451  0.1069
    1DIPC   C4A10016  12.709   9.012   4.949 -0.1126 -0.0137  0.3574
    1DIPC   C1B10017  12.998   9.104   6.190  0.0564  0.1510 -0.1567
    1DIPC   D2B10018  12.713   9.295   5.990 -0.2628 -0.0856 -0.0057
    1DIPC   D3B10019  13.070   9.551   5.892  0.0949  0.2175 -0.3719
    1DIPC   C4B10020  13.311   9.765   5.565 -0.0199  0.1921  0.2813
    1DIPC   NC310021   1.813  27.791   7.369 -0.1876 -0.1621  0.2007
    1DIPC   PO410022   1.452  27.546   7.149 -0.0995 -0.5642 -0.0487
    1DIPC   GL110023   1.571  27.732   6.746 -0.1300  0.0955 -0.0661
    1DIPC   GL210024   1.475  28.061   6.765  0.0443  0.2269  0.1790
    1DIPC   C1A10025   1.881  27.510   6.472 -0.0305  0.2506  0.0766
    1DIPC   D2A10026   1.893  27.427   6.106  0.2560  0.0726  0.1165
    1DIPC   D3A10027   2.019  27.861   6.008  0.0621 -0.0677  0.0273
    1DIPC   C4A10028   1.844  28.217   5.789  0.2806  0.1033  0.1146
    1DIPC   C1B10029   1.195  27.944   6.411 -0.2935 -0.1363 -0.2293
    1DIPC   D2B10030   0.927  27.588   6.343  0.3130  0.1053  0.2508
    1DIPC   D3B10031   1.014  27.835   5.902 -0.0818  0.0925  0.2389
    1DIPC   C4B10032   0.746  27.903   5.582 -0.2510  0.0437 -0.1971
    1DIPC   NC310033  13.346  27.821   6.797  0.0605 -0.0933  0.1565
    1DIPC   PO410034  13.724  27.823   6.514 -0.0809  0.0785  0.0063
    1DIPC   GL110035  13.834  27.882   6.116 -0.1940  0.0344  0.1629
    1DIPC   GL210036  13.717  28.099   5.891  0.3923 -0.3103 -0.0412
    1DIPC   C1A10037  14.193  27.948   5.843 -0.2266  0.0525 -0.2164
    1DIPC   D2A10038  14.620  28.090   5.987 -0.1806 -0.2568  0.0920
    1DIPC   D3A10039  14.763  28.500   5.906 -0.1749 -0.1280 -0.0506
    1DIPC   C4A10040  15.137  28.626   5.754  0.1157 -0.0298 -0.1593
    1DIPC   C1B10041  13.433  28.396   5.596 -0.0022  0.0774 -0.1694
    1DIPC   D2B10042  13.455  28.781   5.314 -0.1678  0.0742 -0.1947
    1DIPC   D3B10043  13.089  28.587   5.248 -0.0679 -0.0875  0.2397
    1DIPC   C4B10044  13.155  28.353   4.785  0.1775 -0.0460  0.1626
    1DIPC   NC310045  11.861   3.449   6.526  0.0587  0.0318  0.3276
    1DIPC   PO410046  11.735   3.860   6.463  0.3609  0.1988  0.2878
    1DIPC   GL110047  11.707   4.051   6.046 -0.1029  0.0262 -0.0722
    1DIPC   GL210048  11.579   3.859   5.700 -0.1922  0.4078  0.3419
    1DIPC   C1A10049  11.859   4.221   5.527 -0.0809 -0.2461 -0.2551
    1DIPC   D2A10050  11.805   4.599   5.297 -0.0286 -0.1493 -0.2544
    1DIPC   D3A10051  12.062   4.560   4.887 -0.2479 -0.2865 -0.2503
    1DIPC   C4A10052  11.940   4.719   4.487  0.0470 -0.5123 -0.3835
    1DIPC   C1B10053  11.506   3.728   5.213  0.1453  0.0327 -0.0303
    1DIPC   D2B10054  11.543   3.716   4.844  0.0200 -0.0341  0.0068
    1DIPC   D3B10055  11.168   3.786   4.745  0.0244  0.0217  0.1602
    1DIPC   C4B10056  10.948   3.646   5.023 -0.1589  0.0793  0.1254
    1DIPC   NC310057  17.926  23.206   6.320  0.0320 -0.1001  0.0073
    1DIPC   PO410058  17.842  23.697   6.122  0.0922 -0.4525 -0.1408
    1DIPC   GL110059  17.850  23.776   5.684  0.1363  0.1407  0.0700
    1DIPC   GL210060  17.890  24.015   5.457 -0.0696 -0.0693 -0.0623
    1DIPC   C1A10061  17.531  23.565   5.476  0.0011  0.1426 -0.0023
    1DIPC   D2A10062  17.539  23.335   5.008 -0.0592 -0.0198 -0.1164
    1DIPC   D3A10063  17.416  23.196   4.554  0.2596 -0.1023  0.2550
    1DIPC   C4A10064  17.431  23.511   4.331 -0.0915 -0.0605  0.1873
    1DIPC   C1B10065  18.204  23.956   5.097 -0.0613 -0.0592  0.1368
    1DIPC   D2B10066  18.023  23.787   4.702 -0.0055  0.0173 -0.0564
    1DIPC   D3B10067  18.111  23.989   4.343  0.1989  0.1299 -0.2823
    1DIPC   C4B10068  17.956  24.212   4.037  0.1785  0.1586  0.0633
    1DIPC   NC310069  27.202   0.989   7.693 -0.0426 -0.2223  0.0061
    1DIPC   PO410070  27.734   1.119   7.623  0.3783  0.1381  0.2209
    1DIPC   GL110071  27.954   0.991   7.284  0.1291 -0.1378 -0.1480
    1DIPC   GL210072  27.829   0.842   7.069  0.1673  0.0411  0.0336
    1DIPC   C1A10073  28.329   0.998   6.940  0.2110  0.2592 -0.0823
    1DIPC   D2A10074  28.545   1.135   6.625 -0.0418 -0.1380 -0.1144
    1DIPC   D3A10075  28.544   1.466   6.754 -0.1857 -0.0736  0.2815
    1DIPC   C4A10076  28.183   1.448   7.003 -0.2737  0.3826 -0.3013
    1DIPC   C1B10077  27.966   0.615   6.665 -0.0465  0.0672 -0.1691
    1DIPC   D2B10078  28.070   0.300   6.404 -0.1711 -0.1547 -0.3584
    1DIPC   D3B10079  27.757   0.064   6.593  0.2359  0.3805 -0.1491
    1DIPC   C4B10080  27.841  30.032   6.392  0.1003  0.2504 -0.1037
    1DIPC   NC310081   9.028  22.578   6.171 -0.0594  0.1067 -0.0491
    1DIPC   PO410082   9.356  22.451   5.924 -0.1398  0.0255  0.5433
    1DIPC   GL110083   9.314  22.537   5.460 -0.0469 -0.0745  0.0162
    1DIPC   GL210084   9.027  22.705   5.369 -0.0633  0.2798  0.4073
    1DIPC   C1A10085   9.349  22.606   4.936  0.0500  0.0351 -0.0628
    1DIPC   D2A10086   9.390  22.622   4.544 -0.0307  0.2632 -0.3476
    1DIPC   D3A10087   9.000  22.670   4.353 -0.0014 -0.0762 -0.1910
    1DIPC   C4A10088   8.700  22.960   4.441 -0.2990 -0.0468  0.1322
    1DIPC   C1B10089   8.636  22.459   5.281 -0.2793 -0.2989 -0.3510
    1DIPC   D2B10090   8.547  22.059   5.045  0.0273 -0.0448 -0.1664
    1DIPC   D3B10091   8.167  21.760   5.053  0.2359 -0.2256  0.1566
    1DIPC   C4B10092   8.282  21.468   4.641  0.2768 -0.1753 -0.0791
    1DIPC   NC310093  12.376   7.367   6.103 -0.0300  0.2466  0.1574
    1DIPC   PO410094  12.715   7.661   6.240  0.2033 -0.0914 -0.2365
    1DIPC   GL110095  12.954   7.887   5.986 -0.1056 -0.3323  0.0847
    1DIPC   GL210096  12.762   8.080   5.888 -0.2580 -0.0441 -0.0558
    1DIPC   C1A10097  13.009   7.826   5.507  0.1626 -0.2494  0.1160
    1DIPC   D2A10098  13.039   7.527   5.160 -0.0813  0.0337  0.1046
    1DIPC   D3A10099  12.988   7.148   4.878 -0.2121 -0.0109  0.0378
    1DIPC   C4A10100  12.799   6.991   4.491 -0.0385  0.0637  0.0573
    1DIPC   C1B10101  12.507   8.436   5.909  0.3578 -0.0092  0.0507
    1DIPC   D2B10102  12.540   8.789   6.039 -0.4569 -0.1678 -0.0516
    1DIPC   D3B10103  12.454   9.002   5.652  0.4636 -0.0821  0.0391
    1DIPC   C4B10104  12.745   9.283   5.457 -0.0272 -0.2253 -0.1932
    1DIPC   NC310105   2.572  27.505   6.923  0.0093  0.0477 -0.0294
    1DIPC   PO410106   2.928  27.728   7.109 -0.3017 -0.0227  0.0562
    1DIPC   GL110107   2.832  27.820   6.705 -0.2620 -0.2104 -0.0777
    1DIPC   GL210108   2.494  28.020   6.543 -0.2142  0.0326  0.1195
    1DIPC   C1A10109   2.849  27.630   6.365 -0.3134  0.1523  0.1051
    1DIPC   D2A10110   3.198  27.560   6.231  0.0262 -0.1125  0.1449
    1DIPC   D3A10111   2.957  28.013   6.115  0.0897  0.0197  0.2988
    1DIPC   C4A10112   2.665  27.868   5.921  0.0352  0.0020  0.1293
    1DIPC   C1B10113   2.360  27.757   6.322  0.1983 -0.0525 -0.2264
    1DIPC   D2B10114   2.399  27.409   6.222  0.0357  0.0780  0.1495
    1DIPC   D3B10115   2.257  27.207   5.900  0.1918  0.1752  0.2488
    1DIPC   C4B10116   2.178  27.540   5.693  0.1457  0.0426  0.0154
    1DIPC   NC310117  21.028  18.185   5.754  0.1214 -0.0712 -0.1530
    1DIPC   PO410118  21.138  17.788   5.935  0.0974 -0.1034  0.2922
    1DIPC   GL110119  21.085  17.767   5.459 -0.1033  0.4372 -0.1388
    1DIPC   GL210120  21.312  17.675   5.234 -0.1549  0.0999  0.1775
    1DIPC   C1A10121  20.863  17.502   5.265  0.0229 -0.1546  0.0023
    1DIPC   D2A10122  20.442  17.296   5.138  0.0949 -0.2316  0.1140
    1DIPC   D3A10123  20.626  17.635   4.829 -0.0159  0.2422 -0.2048
    1DIPC   C4A10124  20.331  17.655   4.418  0.2084 -0.2507 -0.1119
    1DIPC   C1B10125  21.145  17.777   4.846  0.0640  0.1212 -0.0488
    1DIPC   D2B10126  20.958  17.886   4.484 -0.0833 -0.0899 -0.2439
    1DIPC   D3B10127  20.665  18.027   4.276  0.1891  0.3594 -0.1204
    1DIPC   C4B10128  20.512  17.572   3.934 -0.0002 -0.0953  0.1968
    1DIPC   NC310129  18.749   4.435   6.698  0.0238 -0.4372  0.1473
    1DIPC   PO410130  19.125   4.404   6.479  0.2090  0.0881  0.0787
    1DIPC   GL110131  19.110   4.322   6.059 -0.0528 -0.0889 -0.1499
    1DIPC   GL210132  19.135   3.999   6.031 -0.0887  0.0856  0.1332
    1DIPC   C1A10133  18.668   4.337   5.745  0.0994  0.0871 -0.0953
    1DIPC   D2A10134  18.535   4.599   5.470  0.0966  0.0745 -0.1084
    1DIPC   D3A10135  18.698   4.579   4.976  0.1388  0.0566  0.0215
    1DIPC   C4A10136  18.860   4.171   4.751  0.0232  0.0716  0.0469
    1DIPC   C1B10137  19.136   4.168   5.576 -0.0490 -0.2042 -0.1385
    1DIPC   D2B10138  18.971   4.245   5.222 -0.0327  0.2865  0.0078
    1DIPC   D3B10139  19.246   3.987   4.992 -0.0716  0.0864 -0.3996
    1DIPC   C4B10140  19.380   3.661   5.209 -0.1355  0.0700  0.1278
    1DIPC   NC310141   4.659   9.068   6.773  0.2653  0.0866  0.0415
    1DIPC   PO410142   4.905   8.683   6.853 -0.0171  0.0210  0.2359
    1DIPC   GL110143   4.885   8.636   6.438  0.1358  0.1068  0.3416
    1DIPC   GL210144   4.703   8.458   6.124  0.3074 -0.0310 -0.3423
    1DIPC   C1A10145   5.015   8.780   6.008 -0.0232  0.2556 -0.0813
    1DIPC   D2A10146   4.759   8.865   5.620 -0.1104 -0.0279  0.0678
    1DIPC   D3A10147   4.483   8.662   5.339 -0.1323  0.0182  0.2898
    1DIPC   C4A10148   4.499   8.695   4.864  0.1536 -0.1316 -0.2323
    1DIPC   C1B10149   4.468   8.326   5.769  0.3782 -0.1995  0.1676
    1DIPC   D2B10150   4.503   8.076   5.386 -0.1115 -0.1107  0.0496
    1DIPC   D3B10151   4.753   8.346   5.043 -0.2715  0.1027  0.1170
    1DIPC   C4B10152   4.899   8.822   5.166  0.0716  0.2720  0.1990
    1DIPC   NC310153  29.435   6.945   7.044 -0.3999  0.0166 -0.0108
    1DIPC   PO410154  29.420   6.870   6.550  0.0737 -0.2051 -0.1123
    1DIPC   GL110155  29.386   6.983   6.028  0.2205  0.2748 -0.1150
    1DIPC   GL210156  29.265   6.697   5.775  0.1107  0.0435  0.1948
    1DIPC   C1A10157  29.152   7.289   5.708 -0.1809  0.0613 -0.1393
    1DIPC   D2A10158  28.762   7.308   5.419 -0.1396 -0.2315 -0.0198
    1DIPC   D3A10159  28.453   6.916   5.232  0.2028 -0.4198 -0.0521
    1DIPC   C4A10160  28.494   6.466   5.228  0.1378  0.1685 -0.2589
    1DIPC   C1B10161  29.479   6.469   5.394 -0.1755 -0.1598  0.2321
    1DIPC   D2B10162  29.502   6.266   4.979  0.1958 -0.1797 -0.1050
    1DIPC   D3B10163  29.352   6.579   4.693  0.0778 -0.1746 -0.0299
    1DIPC   C4B10164  29.529   6.804   4.409 -0.1445 -0.1079 -0.0090
    1DIPC   NC310165  27.508  28.266   7.283 -0.2812 -0.1608  0.1026
    1DIPC   PO410166  27.374  28.591   7.244 -0.1894 -0.1183 -0.1497
    1DIPC   GL110167  27.457  28.772   6.908  0.1828  0.0105  0.0541
    1DIPC   GL210168  27.328  28.995   6.894  0.0583  0.0477  0.0690
    1DIPC   C1A10169  27.489  28.605   6.471  0.2187 -0.0119 -0.3608
    1DIPC   D2A10170  27.485  28.083   6.256 -0.2725  0.4534  0.0898
    1DIPC   D3A10171  27.183  28.011   6.576  0.0010 -0.3085 -0.0747
    1DIPC   C4A10172  26.797  28.040   6.573 -0.0928 -0.0406  0.0171
    1DIPC   C1B10173  27.068  29.261   6.977  0.0262 -0.0893 -0.2131
    1DIPC   D2B10174  26.757  29.491   6.920 -0.0139  0.0892 -0.0161
    1DIPC   D3B10175  26.670  29.202   6.663  0.1553 -0.1083  0.0131
    1DIPC   C4B10176  27.106  28.981   6.423 -0.1005 -0.1157  0.0349
    1DIPC   NC310177  17.283  23.818   6.145 -0.2287  0.1025 -0.3449
    1DIPC   PO410178  16.932  23.900   6.219 -0.1401 -0.1136  0.1096
    1DIPC   GL110179  16.886  24.072   5.813 -0.0413 -0.2507  0.1852
    1DIPC   GL210180  17.202  23.943   5.665 -0.3446  0.2075  0.1200
    1DIPC   C1A10181  16.781  23.833   5.466  0.3737  0.1734 -0.0889
    1DIPC   D2A10182  16.685  23.700   5.055 -0.0558 -0.1415  0.0831
    1DIPC   D3A10183  16.600  23.948   4.626 -0.3172 -0.3702  0.2475
    1DIPC   C4A10184  16.363  24.367   4.559  0.0094  0.3522  0.2411
    1DIPC   C1B10185  16.859  24.303   5.392 -0.2668 -0.1568  0.3520
    1DIPC   D2B10186  16.931  24.484   5.017  0.2372 -0.4242 -0.0090
    1DIPC   D3B10187  16.928  24.422   4.505 -0.0666 -0.3336  0.2077
    1DIPC   C4B10188  16.670  24.276   4.214 -0.1723  0.0852  0.0598
    1DIPC   NC310189  17.539  20.050   6.308  0.0847  0.1251  0.0049
    1DIPC   PO410190  17.136  19.945   6.187  0.0616  0.1309  0.1012
    1DIPC   GL110191  17.245  20.033   5.825 -0.1673  0.1740  0.1830
    1DIPC   GL210192  17.053  20.301   5.728  0.0391  0.0207 -0.0339
    1DIPC   C1A10193  17.364  19.840   5.476 -0.2998  0.0946  0.0454
    1DIPC   D2A10194  17.315  19.888   4.928 -0.2162 -0.1024  0.0927
    1DIPC   D3A10195  17.234  20.366   4.771 -0.0496  0.2321 -0.0566
    1DIPC   C4A10196  17.518  20.459   4.371  0.0643  0.1350 -0.1420
    1DIPC   C1B10197  16.901  20.070   5.351  0.0577  0.3038  0.2366
    1DIPC   D2B10198  16.833  20.109   4.922 -0.2268 -0.1119 -0.0116
    1DIPC   D3B10199  16.530  20.325   5.078  0.0797  0.1741 -0.1638
    1DIPC   C4B10200  16.210  20.233   5.423 -0.1800  0.1706 -0.1717
    1DIPC   NC310201   8.518   1.981   6.432 -0.1434 -0.2972  0.0722
    1DIPC   PO410202   8.867   2.230   6.073  0.3590 -0.0539  0.2223
    1DIPC   GL110203   8.656   2.357   5.811 -0.0351  0.1069  0.1454
    1DIPC   GL210204   8.621   2.719   5.785  0.0352  0.2143 -0.0393
    1DIPC   C1A10205   8.720   2.448   5.332  0.2263 -0.2513  0.1404
    1DIPC   D2A10206   8.764   2.699   4.939 -0.1169  0.0868 -0.3193
    1DIPC   D3A10207   8.690   2.307   4.863  0.0680  0.0296  0.2132
    1DIPC   C4A10208   8.929   2.034   4.751  0.1818 -0.0394  0.3291
    1DIPC   C1B10209   8.240   2.617   5.585  0.1170  0.0137 -0.1961
    1DIPC   D2B10210   7.930   2.546   5.348  0.2190 -0.1395 -0.3718
    1DIPC   D3B10211   7.670   2.824   5.461  0.0728 -0.3125  0.2989
    1DIPC   C4B10212   7.277   2.825   5.277  0.3607  0.0016  0.2300
    1DIPC   NC310213   8.216  26.338   6.560 -0.0690  0.0905  0.1949
    1DIPC   PO410214   7.950  26.605   6.314 -0.1416 -0.2539 -0.0056
    1DIPC   GL110215   8.130  26.818   5.968 -0.1841 -0.0433 -0.1861
    1DIPC   GL210216   8.155  27.127   5.915  0.0322 -0.0636 -0.2565
    1DIPC   C1A10217   8.471  26.855   5.672  0.2734  0.2434  0.1194
    1DIPC   D2A10218   8.685  26.821   5.272 -0.3119 -0.0524  0.0009
    1DIPC   D3A10219   9.169  26.747   5.292  0.2168  0.2369 -0.0993
    1DIPC   C4A10220   9.275  26.226   5.125  0.0150  0.0692  0.0683
    1DIPC   C1B10221   8.571  27.361   5.998  0.1764  0.3642 -0.2982
    1DIPC   D2B10222   8.935  27.466   6.364  0.0760  0.4290 -0.1029
    1DIPC   D3B10223   9.133  27.420   5.983 -0.0085 -0.0611 -0.0449
    1DIPC   C4B10224   9.356  27.723   5.807  0.4277  0.1020 -0.0835
    1DIPC   NC310225   3.191  12.211   6.636 -0.1292 -0.1260 -0.2612
    1DIPC   PO410226   3.582  12.105   6.374  0.4191  0.1754 -0.3838
    1DIPC   GL110227   3.576  11.848   6.023  0.0368 -0.3028  0.0875
    1DIPC   GL210228   3.850  12.029   5.974 -0.0273  0.0175 -0.0416
    1DIPC   C1A10229   3.685  11.516   5.717  0.0131  0.3515 -0.0295
    1DIPC   D2A10230   3.688  11.309   5.263  0.2675 -0.0883 -0.0134
    1DIPC   D3A10231   3.654  11.530   4.874 -0.1068  0.0892 -0.0815
    1DIPC   C4A10232   4.089  11.592   4.656  0.0195 -0.1133 -0.0231
    1DIPC   C1B10233   3.571  12.143   5.635  0.0912  0.3973  0.0727
    1DIPC   D2B10234   3.531  12.263   5.146  0.2434  0.2742  0.0204
    1DIPC   D3B10235   3.871  12.270   4.960  0.0493 -0.2119 -0.0231
    1DIPC   C4B10236   4.172  11.991   5.103  0.0558  0.2137 -0.0185
    1DIPC   NC310237   8.819  23.025   6.073 -0.1381  0.2215 -0.0734
    1DIPC   PO410238   9.097  22.946   5.808 -0.1707 -0.0877  0.1180
    1DIPC   GL110239   9.224  23.221   5.489  0.0172 -0.2019  0.2583
    1DIPC   GL210240   9.409  23.005   5.233 -0.1442  0.2342  0.1455
    1DIPC   C1A10241   9.249  23.556   5.187 -0.0438 -0.1066 -0.3692
    1DIPC   D2A10242   9.273  23.983   5.026  0.0651 -0.0860  0.1177
    1DIPC   D3A10243   9.261  24.153   4.529 -0.0872  0.2780  0.1312
    1DIPC   C4A10244   9.309  24.519   4.461 -0.0338 -0.1300 -0.2592
    1DIPC   C1B10245   9.314  23.228   4.833 -0.0187 -0.1346 -0.2030
    1DIPC   D2B10246   9.270  23.623   4.599  0.3212  0.0823  0.2397
    1DIPC   D3B10247   8.865  23.455   4.537  0.1597 -0.2174  0.0110
    1DIPC   C4B10248   8.695  23.474   4.128 -0.1029  0.3238 -0.1710
    1DIPC   NC310249  21.581   6.223   6.112  0.1195  0.0721 -0.0606
    1DIPC   PO410250  21.145   6.413   6.220 -0.0975  0.2411 -0.1143
    1DIPC   GL110251  21.260   6.438   5.746  0.0710 -0.2522  0.1943
    1DIPC   GL210252  21.372   6.648   5.610  0.0546  0.2776  0.2194
    1DIPC   C1A10253  21.102   6.211   5.374  0.2668 -0.0603  0.4071
    1DIPC   D2A10254  20.988   5.822   5.103  0.3913  0.0542  0.3128
    1DIPC   D3A10255  20.577   5.865   4.885 -0.2004 -0.1407  0.3048
    1DIPC   C4A10256  20.624   5.868   4.455  0.0859  0.2685  0.0133
    1DIPC   C1B10257  21.251   6.594   5.102  0.0822 -0.0864  0.1436
    1DIPC   D2B10258  20.993   6.270   4.845 -0.1460  0.2375  0.1458
    1DIPC   D3B10259  20.650   6.435   4.676 -0.1544 -0.1130  0.0815
    1DIPC   C4B10260  20.437   6.509   4.392  0.3803 -0.1751 -0.0069
    1DIPC   NC310261   0.111  25.157   6.957 -0.2814 -0.0117  0.2497
    1DIPC   PO410262  30.208  25.041   6.656  0.0213  0.1398  0.1022
    1DIPC   GL110263  30.137  25.133   6.212  0.0107 -0.3313  0.1926
    1DIPC   GL210264  29.879  24.965   6.233  0.0107  0.0022 -0.4098
    1DIPC   C1A10265  29.928  25.233   5.681 -0.2832 -0.1045  0.0466
    1DIPC   D2A10266  30.092  25.150   5.373 -0.1081 -0.1840 -0.1823
    1DIPC   D3A10267  29.853  25.520   5.290 -0.1951  0.2577 -0.0675
    1DIPC   C4A10268  29.533  25.730   5.116  0.1706 -0.1504 -0.0787
    1DIPC   C1B10269  29.506  25.134   6.010 -0.1431 -0.0129 -0.1577
    1DIPC   D2B10270  29.353  25.096   5.653  0.1651  0.1058  0.2894
    1DIPC   D3B10271  29.494  25.500   5.607  0.1483  0.2834 -0.0109
    1DIPC   C4B10272  29.649  25.585   6.005 -0.0578  0.0872  0.2044
    1DIPC   NC310273  17.037  11.450   6.544 -0.0948 -0.0155 -0.3068
    1DIPC   PO410274  16.725  11.723   6.502  0.1547  0.2516 -0.1906
    1DIPC   GL110275  16.698  11.453   6.113 -0.3723  0.1773  0.0717
    1DIPC   GL210276  16.329  11.481   6.107  0.1829 -0.1222 -0.2578
    1DIPC   C1A10277  16.650  11.574   5.676 -0.0494  0.2625  0.3218
    1DIPC   D2A10278  16.472  11.481   5.220  0.1761 -0.0115  0.0307
    1DIPC   D3A10279  16.093  11.365   5.341  0.4642 -0.0209 -0.0036
    1DIPC   C4A10280  15.798  11.301   5.136 -0.3571  0.0845 -0.1073
    1DIPC   C1B10281  16.218  11.694   5.813 -0.2390  0.0314 -0.1959
    1DIPC   D2B10282  16.177  11.848   5.426  0.1881  0.1641 -0.3037
    1DIPC   D3B10283  16.235  12.222   5.292 -0.1404 -0.0240  0.0830
    1DIPC   C4B10284  16.039  12.563   5.598  0.1212 -0.0129 -0.1895
    1DIPC   NC310285  12.346  10.668   7.149  0.1619 -0.0165  0.0573
    1DIPC   PO410286  12.042  10.483   6.749 -0.2258  0.1830 -0.0625
    1DIPC   GL110287  12.461  10.648   6.580  0.1881 -0.0856 -0.2099
    1DIPC   GL210288  12.111  10.791   6.397 -0.1312  0.0787 -0.2168
    1DIPC   C1A10289  12.752  10.540   6.290 -0.0911 -0.1124  0.0542
    1DIPC   D2A10290  12.983  10.383   6.056  0.0633 -0.2690  0.1927
    1DIPC   D3A10291  12.794  10.509   5.648 -0.2026  0.0915  0.0954
    1DIPC   C4A10292  12.658  10.276   5.252 -0.1802 -0.0576  0.2165
    1DIPC   C1B10293  12.402  10.798   6.080  0.0417 -0.2252  0.0823
    1DIPC   D2B10294  12.560  10.946   5.736 -0.3050  0.1631 -0.0514
    1DIPC   D3B10295  12.135  10.768   5.630 -0.0394  0.1157  0.2643
    1DIPC   C4B10296  12.068  10.607   5.174  0.2338 -0.4134 -0.0636
    1DIPC   NC310297  26.681   7.297   6.643 -0.0424  0.1343 -0.1880
    1DIPC   PO410298  26.730   6.829   6.747 -0.0716  0.0544  0.1677
    1DIPC   GL110299  26.801   6.900   6.269  0.0419  0.0132  0.0598
    1DIPC   GL210300  27.033   7.145   6.134  0.0653  0.0710 -0.0168
    1DIPC   C1A10301  26.805   6.775   5.798  0.0550  0.2162  0.0019
    1DIPC   D2A10302  27.046   6.822   5.509  0.3374 -0.0837  0.1023
    1DIPC   D3A10303  26.985   6.811   5.061 -0.1104 -0.0984  0.1814
    1DIPC   C4A10304  27.140   7.014   4.840 -0.2232 -0.1416  0.1498
    1DIPC   C1B10305  26.816   7.373   5.787 -0.0294  0.0196 -0.0254
    1DIPC   D2B10306  26.463   7.373   5.416  0.4325 -0.1792 -0.1206
    1DIPC   D3B10307  26.462   7.526   5.020 -0.3221 -0.2061 -0.1438
    1DIPC   C4B10308  26.879   7.503   4.752 -0.1234 -0.2494  0.1280
    1DIPC   NC310309   6.270  10.335   6.857 -0.3692 -0.1514 -0.1148
    1DIPC   PO410310   6.488  10.344   6.437  0.4893  0.0095  0.0094
    1DIPC   GL110311   6.663  10.607   6.075 -0.1961 -0.1963  0.0744
    1DIPC   GL210312   6.930  10.713   6.111  0.0996 -0.2619  0.1100
    1DIPC   C1A10313   6.727  10.477   5.699 -0.2400  0.2339 -0.2013
    1DIPC   D2A10314   6.782  10.395   5.281 -0.1067  0.1039  0.0289
    1DIPC   D3A10315   6.483  10.457   4.894  0.0989 -0.0778 -0.0505
    1DIPC   C4A10316   6.397  10.897   4.803 -0.1762 -0.0291 -0.1729
    1DIPC   C1B10317   6.891  11.006   5.828  0.3748  0.0381  0.0503
    1DIPC   D2B10318   6.828  10.949   5.358  0.2039  0.2023  0.0249
    1DIPC   D3B10319   6.921  10.707   4.927  0.1051 -0.0285 -0.0711
    1DIPC   C4B10320   7.237  11.045   4.775  0.3681 -0.0561 -0.0012
    1DIPC   NC310321   9.705  22.158   5.710  0.1846 -0.0836 -0.1397
    1DIPC   PO410322   9.991  21.820   5.578 -0.2021 -0.2647  0.0201
    1DIPC   GL110323   9.903  21.807   5.152  0.1947 -0.3425  0.2026
    1DIPC   GL210324  10.185  21.793   5.059  0.0448  0.4676  0.1967
    1DIPC   C1A10325   9.640  21.796   4.723  0.1320 -0.1108 -0.1218
    1DIPC   D2A10326   9.800  21.742   4.284  0.0190 -0.2241  0.0515
    1DIPC   D3A10327  10.011  21.470   4.131  0.2652  0.1613 -0.0649
    1DIPC   C4A10328  10.336  21.641   4.255  0.2110  0.2366 -0.1696
    1DIPC   C1B10329  10.110  21.503   4.797 -0.0423 -0.2841  0.1194
    1DIPC   D2B10330  10.129  21.114   4.629 -0.1035 -0.1336 -0.0985
    1DIPC   D3B10331   9.964  20.941   4.336  0.1540  0.1361  0.0904
    1DIPC   C4B10332  10.253  20.958   3.912  0.0346 -0.1404  0.1375
    1DIPC   NC310333  17.365  17.120   6.331 -0.1863 -0.0308 -0.0541
    1DIPC   PO410334  17.050  17.048   6.062  0.0296  0.2528 -0.0709
    1DIPC   GL110335  16.892  16.732   5.767 -0.0251  0.3345 -0.0141
    1DIPC   GL210336  16.609  16.712   5.873 -0.3729 -0.1653  0.3357
    1DIPC   C1A10337  16.737  16.473   5.351  0.2601 -0.2855  0.2070
    1DIPC   D2A10338  16.495  16.486   4.918  0.2426  0.0801 -0.0672
    1DIPC   D3A10339  16.272  16.515   4.493 -0.2143  0.0874 -0.0554
    1DIPC   C4A10340  16.041  16.218   4.447 -0.1855 -0.0186 -0.1253
    1DIPC   C1B10341  16.287  16.715   5.507  0.3944 -0.2654  0.3328
    1DIPC   D2B10342  16.136  16.788   5.010  0.1772  0.0054 -0.0688
    1DIPC   D3B10343  15.987  16.316   4.991  0.1095 -0.1967 -0.1656
    1DIPC   C4B10344  15.616  16.248   5.220 -0.1928 -0.1990  0.0953
    1DIPC   NC310345  25.131  27.307   6.848 -0.4889  0.0268  0.0847
    1DIPC   PO410346  25.132  27.661   6.638 -0.2594  0.0664  0.1240
    1DIPC   GL110347  25.283  27.844   6.248  0.0087  0.0980 -0.2301
    1DIPC   GL210348  25.582  27.934   6.401 -0.0898 -0.0329 -0.1923
    1DIPC   C1A10349  25.505  27.770   5.889 -0.0158  0.1189 -0.0719
    1DIPC   D2A10350  25.350  27.872   5.461  0.1951 -0.2047  0.2081
    1DIPC   D3A10351  25.181  28.283   5.371  0.1309 -0.1687 -0.1312
    1DIPC   C4A10352  24.712  28.215   5.211  0.0022  0.0963 -0.1142
    1DIPC   C1B10353  25.811  28.130   6.031  0.2175 -0.0234 -0.0458
    1DIPC   D2B10354  25.879  28.196   5.523  0.0029 -0.0057 -0.0747
    1DIPC   D3B10355  25.949  27.671   5.410  0.3219 -0.0757 -0.1194
    1DIPC   C4B10356  25.615  27.455   5.447 -0.4290  0.1824  0.1193
    1DIPC   NC310357   3.425   2.777   7.003 -0.4147  0.0319  0.0445
    1DIPC   PO410358   3.570   3.313   6.977  0.1195  0.0910  0.2533
    1DIPC   GL110359   3.641   3.520   6.532 -0.0401  0.2497  0.0802
    1DIPC   GL210360   4.025   3.502   6.470 -0.1566  0.1874  0.1698
    1DIPC   C1A10361   3.552   3.391   6.129 -0.0679 -0.1060 -0.2542
    1DIPC   D2A10362   3.481   3.630   5.730 -0.0914  0.0656 -0.0594
    1DIPC   D3A10363   3.425   3.359   5.461 -0.0478  0.1618 -0.1029
    1DIPC   C4A10364   3.766   3.102   5.421 -0.2293  0.3069  0.1398
    1DIPC   C1B10365   4.024   3.368   6.062 -0.0235  0.1678  0.1228
    1DIPC   D2B10366   3.930   3.494   5.684 -0.0980  0.1531  0.4018
    1DIPC   D3B10367   4.401   3.641   5.803  0.4133 -0.2645 -0.0454
    1DIPC   C4B10368   4.662   3.716   5.471 -0.1980 -0.3214 -0.1065
    1DIPC   NC310369   7.919  11.066   6.412  0.0077 -0.1179  0.0469
    1DIPC   PO410370   7.703  10.795   6.661  0.2791  0.2043  0.2138
    1DIPC   GL110371   7.769  10.656   6.190  0.0517  0.1161 -0.0594
    1DIPC   GL210372   7.721  10.405   6.076 -0.1599  0.0853  0.0069
    1DIPC   C1A10373   7.866  10.875   5.801  0.0085 -0.0338 -0.5340
    1DIPC   D2A10374   7.732  10.877   5.454 -0.1393  0.1441 -0.0331
    1DIPC   D3A10375   7.630  10.419   5.510  0.0205  0.1127  0.0199
    1DIPC   C4A10376   7.837  10.174   5.275  0.1639 -0.0468  0.0220
    1DIPC   C1B10377   8.034  10.392   5.789 -0.2217 -0.2243 -0.0207
    1DIPC   D2B10378   8.114  10.553   5.435  0.2707 -0.3443 -0.1560
    1DIPC   D3B10379   8.291  10.231   5.284 -0.1635 -0.2281  0.1114
    1DIPC   C4B10380   8.609  10.150   4.972 -0.1045 -0.0132 -0.1159
    1DIPC   NC310381  16.959   9.425   6.115  0.1599 -0.1945  0.0095
    1DIPC   PO410382  17.008   8.891   6.145  0.1232 -0.0578  0.0998
    1DIPC   GL110383  16.829   8.991   5.820 -0.2165  0.1528 -0.1818
    1DIPC   GL210384  16.973   9.165   5.678 -0.1804 -0.0910 -0.0574
    1DIPC   C1A10385  16.531   9.073   5.410 -0.0387  0.2565 -0.0555
    1DIPC   D2A10386  16.420   9.450   5.215 -0.2231  0.1398 -0.0240
    1DIPC   D3A10387  16.405   9.457   4.715  0.1270  0.0078  0.0068
    1DIPC   C4A10388  16.820   9.585   4.398  0.1040  0.0447  0.0696
    1DIPC   C1B10389  17.198   9.168   5.259  0.0509 -0.1622  0.0904
    1DIPC   D2B10390  17.631   8.951   5.164  0.0572 -0.1583  0.1507
    1DIPC   D3B10391  17.644   8.789   4.840 -0.2347  0.0958 -0.0224
    1DIPC   C4B10392  18.075   8.569   4.775 -0.0363 -0.4152 -0.2475
    1DIPC   NC310393  20.827  24.107   6.133  0.3540  0.0395 -0.3085
    1DIPC   PO410394  21.202  23.891   6.001 -0.0482  0.1004  0.1404
    1DIPC   GL110395  21.357  24.101   5.742 -0.2158 -0.0576  0.0902
    1DIPC   GL210396  21.592  24.095   5.810 -0.1708 -0.2400 -0.0262
    1DIPC   C1A10397  21.260  24.511   5.482  0.3894 -0.0191  0.0193
    1DIPC   D2A10398  21.240  24.792   5.115  0.0307 -0.2184  0.0337
    1DIPC   D3A10399  21.647  24.827   5.290 -0.0829 -0.2581 -0.2764
    1DIPC   C4A10400  21.763  24.561   5.525  0.3072  0.0231 -0.0873
    1DIPC   C1B10401  21.734  24.050   5.378  0.2174  0.5379 -0.0812
    1DIPC   D2B10402  21.509  24.287   5.103 -0.1322 -0.1578 -0.0854
    1DIPC   D3B10403  21.619  24.067   4.775 -0.2393 -0.4544  0.0969
    1DIPC   C4B10404  21.507  23.889   4.359 -0.1047 -0.1845 -0.0292
    1DIPC   NC310405   4.458  26.607   6.979  0.1916  0.1894  0.0263
    1DIPC   PO410406   4.894  26.695   6.851 -0.1425  0.4062  0.2363
    1DIPC   GL110407   4.717  26.744   6.402 -0.0843  0.0684 -0.0255
    1DIPC   GL210408   4.881  26.920   6.137  0.2587  0.2178 -0.0140
    1DIPC   C1A10409   4.373  26.663   6.180  0.0660 -0.1810  0.2309
    1DIPC   D2A10410   4.725  26.692   5.693  0.2987 -0.0540 -0.0419
    1DIPC   D3A10411   4.908  27.047   5.586 -0.0402  0.1894  0.1841
    1DIPC   C4A10412   5.136  27.257   5.252 -0.1114  0.1513 -0.0733
    1DIPC   C1B10413   5.169  27.178   6.027  0.2604  0.0802 -0.1880
    1DIPC   D2B10414   5.527  27.148   5.636  0.2038 -0.0161  0.1706
    1DIPC   D3B10415   5.238  27.504   5.641 -0.0059 -0.1259  0.2571
    1DIPC   C4B10416   5.104  27.727   5.343  0.0772  0.0540 -0.0719
    1DIPC   NC310417  12.723  11.905   6.945 -0.0745 -0.1321 -0.0215
    1DIPC   PO410418  12.330  11.868   6.782  0.1401  0.2555  0.0043
    1DIPC   GL110419  12.117  11.893   6.394 -0.2433 -0.0660  0.0577
    1DIPC   GL210420  12.148  12.183   6.205 -0.0564  0.1984 -0.2684
    1DIPC   C1A10421  11.961  11.594   6.154 -0.3279  0.0560  0.1505
    1DIPC   D2A10422  12.141  11.281   5.841  0.0965  0.1298 -0.3750
    1DIPC   D3A10423  12.503  11.373   5.886  0.3770 -0.0667 -0.1324
    1DIPC   C4A10424  12.830  11.617   5.709 -0.0691 -0.1181  0.0602
    1DIPC   C1B10425  11.862  12.075   5.930  0.0650 -0.0204 -0.0608
    1DIPC   D2B10426  11.649  11.706   5.696  0.2978  0.0259 -0.1862
    1DIPC   D3B10427  12.012  11.651   5.481  0.1035 -0.1006 -0.2915
    1DIPC   C4B10428  12.014  11.773   5.134 -0.0942  0.1261  0.0246
    1DIPC   NC310429   7.441  12.195   6.526 -0.1869 -0.0210  0.6242
    1DIPC   PO410430   7.825  12.440   6.505  0.2792  0.3415 -0.0895
    1DIPC   GL110431   7.657  12.484   6.047  0.3349  0.2029 -0.1182
    1DIPC   GL210432   7.414  12.334   5.987  0.3213  0.0671  0.0199
    1DIPC   C1A10433   7.874  12.341   5.689 -0.1899  0.2830 -0.0819
    1DIPC   D2A10434   8.173  11.996   5.510 -0.0430 -0.2511 -0.1131
    1DIPC   D3A10435   8.070  11.858   5.116 -0.1265 -0.4584 -0.1133
    1DIPC   C4A10436   8.289  12.000   4.705 -0.1942  0.0059  0.1794
    1DIPC   C1B10437   7.153  12.134   5.691  0.2236 -0.0765  0.2900
    1DIPC   D2B10438   7.065  11.808   5.491 -0.1063 -0.0947  0.1184
    1DIPC   D3B10439   6.942  11.488   5.334  0.1204  0.3353 -0.1502
    1DIPC   C4B10440   7.115  11.532   4.925  0.1346 -0.2912  0.0607
    1DIPC   NC310441  16.180   7.271   5.913 -0.1035 -0.0341  0.1370
    1DIPC   PO410442  16.061   7.020   5.451  0.2752  0.0031  0.0489
    1DIPC   GL110443  16.068   6.940   5.029  0.0829 -0.2805  0.2100
    1DIPC   GL210444  16.352   6.750   4.848 -0.0715 -0.1655  0.3718
    1DIPC   C1A10445  15.841   6.861   4.682 -0.1354 -0.0579 -0.0280
    1DIPC   D2A10446  15.579   6.745   4.381 -0.2393  0.3281 -0.0314
    1DIPC   D3A10447  16.004   6.537   4.225 -0.0869 -0.2159  0.2017
    1DIPC   C4A10448  16.237   6.433   3.843  0.0752 -0.0237 -0.1972
    1DIPC   C1B10449  16.422   6.786   4.316 -0.2203  0.0140  0.1276
    1DIPC   D2B10450  16.516   6.857   3.923 -0.0997 -0.0707 -0.0252
    1DIPC   D3B10451  16.753   7.162   3.832  0.0812 -0.3082  0.3393
    1DIPC   C4B10452  16.899   7.469   3.408  0.0517  0.0730  0.0874
    1DIPC   NC310453  14.206   4.610   6.345  0.0162  0.2044  0.0354
    1DIPC   PO410454  13.720   4.539   6.538  0.2250 -0.2215  0.2594
    1DIPC   GL110455  13.786   4.560   5.953  0.0112 -0.2529 -0.0728
    1DIPC   GL210456  13.520   4.616   5.765 -0.1241  0.1081 -0.0955
    1DIPC   C1A10457  14.138   4.368   5.612  0.4504  0.3031 -0.2393
    1DIPC   D2A10458  14.374   3.985   5.464  0.0579 -0.1556  0.0795
    1DIPC   D3A10459  14.373   3.900   4.989 -0.3352 -0.1686  0.1740
    1DIPC   C4A10460  14.048   3.972   4.796 -0.3782  0.2501 -0.0383
    1DIPC   C1B10461  13.280   4.652   5.381  0.2304  0.0728 -0.0638
    1DIPC   D2B10462  13.047   4.619   4.969 -0.1688  0.0843  0.1605
    1DIPC   D3B10463  13.267   4.658   4.655  0.1787 -0.3619 -0.0950
    1DIPC   C4B10464  13.197   4.802   4.211  0.1055 -0.0771 -0.2599
    1DIPC   NC310465  26.225   6.639   6.799  0.0122  0.0218 -0.0775
    1DIPC   PO410466  25.933   6.247   6.780 -0.0701 -0.0627 -0.2310
    1DIPC   GL110467  25.865   6.183   6.366 -0.1272  0.4869 -0.3216
    1DIPC   GL210468  26.072   6.313   6.227 -0.1236 -0.3732  0.2156
    1DIPC   C1A10469  25.684   6.144   5.944 -0.2466  0.1167 -0.0990
    1DIPC   D2A10470  25.327   5.946   5.709  0.3173  0.2147 -0.2695
    1DIPC   D3A10471  25.552   5.668   5.515 -0.2919  0.1209  0.0064
    1DIPC   C4A10472  25.369   5.267   5.434  0.3170  0.0795  0.0015
    1DIPC   C1B10473  26.260   6.039   5.930  0.0604 -0.1383 -0.1468
    1DIPC   D2B10474  26.554   5.685   5.733 -0.2639  0.2314 -0.1852
    1DIPC   D3B10475  26.325   5.724   5.369  0.1123 -0.2766 -0.0438
    1DIPC   C4B10476  26.641   5.642   5.048 -0.0875  0.0587  0.0437
    1DIPC   NC310477  23.297  14.061   5.719  0.1366 -0.0885  0.1739
    1DIPC   PO410478  22.833  13.981   5.818  0.2686  0.1666 -0.0516
    1DIPC   GL110479  22.817  13.912   5.409  0.0483 -0.2098 -0.2082
    1DIPC   GL210480  22.755  14.172   5.231  0.2937 -0.0261 -0.0393
    1DIPC   C1A10481  22.686  13.613   5.147 -0.0972  0.0060 -0.0295
    1DIPC   D2A10482  22.265  13.619   4.869 -0.1821  0.0956  0.1123
    1DIPC   D3A10483  22.309  13.544   4.426  0.0029 -0.1904 -0.0846
    1DIPC   C4A10484  22.632  13.308   4.211 -0.1185  0.2802 -0.0966
    1DIPC   C1B10485  22.445  14.062   4.840 -0.1759 -0.0807 -0.1459
    1DIPC   D2B10486  22.314  14.105   4.477  0.1050 -0.1074  0.0722
    1DIPC   D3B10487  21.939  14.084   4.185 -0.0696 -0.1644  0.2694
    1DIPC   C4B10488  22.113  14.297   3.872  0.1598  0.2650 -0.0845
    1DIPC   NC310489  20.203  18.446   6.016  0.1367 -0.0949  0.0655
    1DIPC   PO410490  20.520  18.270   5.773 -0.0489  0.0908 -0.0629
    1DIPC   GL110491  20.645  18.126   5.353  0.1939  0.2011 -0.1804
    1DIPC   GL210492  20.345  17.904   5.159 -0.3220  0.0439  0.0643
    1DIPC   C1A10493  20.739  18.151   4.940  0.2808  0.1235  0.4403
    1DIPC   D2A10494  20.675  18.354   4.602  0.1090  0.0459 -0.0801
    1DIPC   D3A10495  20.986  18.388   4.327  0.0430  0.0623 -0.0548
    1DIPC   C4A10496  20.958  18.719   4.051  0.1520  0.0809  0.4977
    1DIPC   C1B10497  20.260  18.022   4.732 -0.2032 -0.1684  0.0473
    1DIPC   D2B10498  20.169  18.265   4.461  0.2296  0.0250  0.4285
    1DIPC   D3B10499  20.078  18.067   4.060  0.0162 -0.0342  0.0615
    1DIPC   C4B10500  20.025  18.277   3.674  0.0934  0.2925  0.2717
    1DIPC   NC310501  14.335   3.772   6.844 -0.2957 -0.1065  0.1069
    1DIPC   PO410502  13.970   3.681   6.717  0.3451 -0.1813 -0.2274
    1DIPC   GL110503  13.736   3.712   6.291  0.1013  0.1390  0.0493
    1DIPC   GL210504  13.935   3.570   6.003 -0.2805 -0.2223 -0.2414
    1DIPC   C1A10505  13.509   3.671   5.856 -0.1450  0.0293  0.1084
    1DIPC   D2A10506  13.307   3.473   5.586  0.2075 -0.0914 -0.3508
    1DIPC   D3A10507  12.988   3.273   5.932 -0.1941 -0.1762  0.0704
    1DIPC   C4A10508  12.567   3.478   5.935 -0.0004 -0.0632 -0.0690
    1DIPC   C1B10509  13.946   3.698   5.619  0.3794  0.1343  0.1070
    1DIPC   D2B10510  14.181   3.536   5.338  0.2568 -0.1223  0.2971
    1DIPC   D3B10511  14.181   3.471   4.859  0.0803  0.2266  0.0363
    1DIPC   C4B10512  14.573   3.495   4.685  0.0571  0.0912 -0.0726
    1DIPC   NC310513  12.198  29.356   7.059 -0.3045  0.1045 -0.0542
    1DIPC   PO410514  11.864  29.480   7.048 -0.0039 -0.1804  0.2121
    1DIPC   GL110515  11.929  29.392   6.521  0.2966 -0.1213  0.1301
    1DIPC   GL210516  12.009  29.115   6.338 -0.1702  0.1209  0.0975
    1DIPC   C1A10517  12.266  29.579   6.245 -0.2824  0.0824  0.2288
    1DIPC   D2A10518  12.607  29.656   5.928  0.0627  0.1214 -0.0142
    1DIPC   D3A10519  12.729  30.146   6.227 -0.1150  0.0105 -0.1311
    1DIPC   C4A10520  12.726   0.171   5.929 -0.3464  0.2564 -0.0425
    1DIPC   C1B10521  11.934  29.173   5.975 -0.2451 -0.3107 -0.1127
    1DIPC   D2B10522  11.797  29.263   5.522  0.2986  0.2885 -0.2304
    1DIPC   D3B10523  11.467  29.527   5.381  0.2466  0.1909 -0.2726
    1DIPC   C4B10524  11.222  29.429   4.942  0.0590 -0.2157  0.2002
    1DIPC   NC310525  27.445  25.284   6.481  0.0943 -0.0846 -0.0292
    1DIPC   PO410526  27.094  25.103   6.171  0.2641 -0.0788 -0.0989
    1DIPC   GL110527  27.075  25.109   5.779  0.1685  0.0714  0.2397
    1DIPC   GL210528  26.973  24.813   5.813  0.0739  0.1610  0.1443
    1DIPC   C1A10529  27.187  25.006   5.382  0.0100  0.2692  0.0571
    1DIPC   D2A10530  26.998  24.947   5.039  0.1174  0.0663 -0.0246
    1DIPC   D3A10531  27.226  24.677   4.871  0.5036 -0.2008 -0.1226
    1DIPC   C4A10532  27.142  24.435   4.518 -0.2362 -0.0751  0.1308
    1DIPC   C1B10533  26.679  24.957   5.539  0.3515 -0.1009 -0.0449
    1DIPC   D2B10534  26.517  25.041   5.201  0.2882 -0.1277  0.2071
    1DIPC   D3B10535  26.694  25.439   5.038 -0.0638  0.1732 -0.3751
    1DIPC   C4B10536  26.459  25.835   5.101 -0.2107 -0.2560  0.3191
    1DIPC   NC310537  28.113  29.276   7.451  0.1447  0.1521 -0.0334
    1DIPC   PO410538  28.297  28.885   7.287 -0.0413 -0.1162 -0.0414
    1DIPC   GL110539  28.570  28.901   6.931  0.0020 -0.2984 -0.0268
    1DIPC   GL210540  28.453  29.097   6.754  0.2331 -0.0125  0.1556
    1DIPC   C1A10541  28.592  28.693   6.504 -0.0950 -0.0013 -0.0392
    1DIPC   D2A10542  28.337  28.443   6.192 -0.0959 -0.1182  0.0477
    1DIPC   D3A10543  28.185  28.684   5.911 -0.1644 -0.1491 -0.3625
    1DIPC   C4A10544  27.843  28.927   5.930  0.0203 -0.0853  0.1840
    1DIPC   C1B10545  28.491  29.500   6.471 -0.1075 -0.0693  0.3744
    1DIPC   D2B10546  28.624  29.594   6.186 -0.2475 -0.2305 -0.0318
    1DIPC   D3B10547  28.544  29.570   5.728 -0.2525  0.1239  0.1579
    1DIPC   C4B10548  28.371  29.688   5.383 -0.0298 -0.1971 -0.1571
    1DIPC   NC310549  14.842   9.584   6.494 -0.0980  0.3249  0.0052
    1DIPC   PO410550  14.501   9.409   6.509  0.1304 -0.1079 -0.2064
    1DIPC   GL110551  14.611   9.385   6.116 -0.0619  0.2199  0.0908
    1DIPC   GL210552  14.521   9.688   6.089  0.2692 -0.0169  0.2159
    1DIPC   C1A10553  14.440   9.350   5.676  0.1194  0.0573 -0.0546
    1DIPC   D2A10554  14.476   9.082   5.332  0.2330  0.0478 -0.0630
    1DIPC   D3A10555  14.647   8.657   5.057  0.1499  0.2109 -0.3063
    1DIPC   C4A10556  14.699   8.673   4.592  0.1079 -0.0971 -0.1874
    1DIPC   C1B10557  14.213   9.783   5.826  0.0236  0.0573 -0.0974
    1DIPC   D2B10558  14.195   9.967   5.429  0.0456 -0.2076  0.2317
    1DIPC   D3B10559  13.882   9.867   5.140 -0.0740  0.0298 -0.1178
    1DIPC   C4B10560  14.090   9.529   4.830  0.0161 -0.0102 -0.4064
    1DIPC   NC310561  25.210   0.320   6.633  0.0685 -0.2029  0.0315
    1DIPC   PO410562  25.425   0.042   6.851 -0.0711 -0.1424  0.2546
    1DIPC   GL110563  25.749  30.265   6.603  0.0255 -0.2303 -0.0541
    1DIPC   GL210564  25.806  29.978   6.607 -0.2664  0.0035  0.0651
    1DIPC   C1A10565  25.820   0.186   6.203 -0.1415  0.1498  0.0189
    1DIPC   D2A10566  25.679   0.472   5.879 -0.0917 -0.2978  0.1209
    1DIPC   D3A10567  25.664   0.202   5.558 -0.0576  0.1364 -0.2984
    1DIPC   C4A10568  25.693  30.329   5.201  0.0659 -0.4109  0.3541
    1DIPC   C1B10569  26.173  29.909   6.310  0.3178 -0.2925 -0.0015
    1DIPC   D2B10570  26.353  29.847   5.970  0.2402 -0.2755  0.0027
    1DIPC   D3B10571  26.310  29.618   5.751 -0.2985 -0.3794 -0.0040
    1DIPC   C4B10572  26.569  29.326   5.628  0.0075 -0.0012  0.0391
    1DIPC   NC310573  25.429  26.071   7.045  0.1382 -0.1140 -0.2601
    1DIPC   PO410574  24.946  26.124   7.066  0.1251  0.3456  0.1943
    1DIPC   GL110575  25.115  26.024   6.634  0.1022 -0.0602 -0.1969
    1DIPC   GL210576  24.998  25.756   6.613  0.0649  0.0248  0.2985
    1DIPC   C1A10577  25.282  25.936   6.241  0.0444  0.1319  0.1265
    1DIPC   D2A10578  25.233  25.864   5.765 -0.0547  0.0043 -0.1119
    1DIPC   D3A10579  24.970  26.028   5.498  0.1348  0.1656 -0.0549
    1DIPC   C4A10580  25.115  26.411   5.384  0.1875 -0.1648  0.0978
    1DIPC   C1B10581  24.634  26.028   6.450  0.1124 -0.0685  0.1426
    1DIPC   D2B10582  24.295  26.188   6.377  0.1043  0.1573 -0.3065
    1DIPC   D3B10583  24.433  26.088   6.014 -0.0211 -0.0402 -0.1269
    1DIPC   C4B10584  24.759  25.885   5.954 -0.2326  0.0257  0.0516
    1DIPC   NC310585  20.455   7.513   6.575  0.1311  0.1237 -0.5819
    1DIPC   PO410586  20.114   7.407   6.235  0.3055 -0.0286 -0.1045
    1DIPC   GL110587  19.781   7.363   5.974  0.1337  0.0002  0.2835
    1DIPC   GL210588  19.515   7.081   5.899 -0.1323  0.0761 -0.1017
    1DIPC   C1A10589  19.809   7.298   5.471 -0.3677 -0.1905  0.1080
    1DIPC   D2A10590  19.992   7.050   5.098  0.1447 -0.2786 -0.1407
    1DIPC   D3A10591  20.265   7.030   5.357 -0.2550 -0.1495  0.0047
    1DIPC   C4A10592  20.633   6.836   5.263 -0.1558  0.1854 -0.0767
    1DIPC   C1B10593  19.817   6.802   5.587 -0.0527 -0.0146  0.0326
    1DIPC   D2B10594  20.221   6.610   5.692  0.6303 -0.0470  0.0447
    1DIPC   D3B10595  20.628   6.466   5.567  0.0431 -0.1175 -0.4529
    1DIPC   C4B10596  20.673   6.291   5.191  0.3801 -0.1990  0.0414
    1DIPC   NC310597  21.365  19.002   5.716 -0.0313  0.2375 -0.2955
    1DIPC   PO410598  21.234  18.895   5.315 -0.1635  0.2403 -0.2913
    1DIPC   GL110599  21.002  18.634   5.054  0.0734 -0.0112 -0.2336
    1DIPC   GL210600  20.705  18.735   5.093  0.2078 -0.0616 -0.1097
    1DIPC   C1A10601  21.176  18.268   4.805 -0.2665  0.0370 -0.1696
    1DIPC   D2A10602  21.489  18.046   4.619 -0.1315 -0.2461  0.3246
    1DIPC   D3A10603  21.366  17.977   4.148 -0.1246 -0.2591  0.0941
    1DIPC   C4A10604  20.980  17.812   3.932 -0.2191  0.2737  0.0238
    1DIPC   C1B10605  20.734  18.932   4.682 -0.0760  0.2735  0.1164
    1DIPC   D2B10606  20.855  19.159   4.438 -0.2955  0.2406  0.1877
    1DIPC   D3B10607  20.578  19.247   4.038 -0.0871  0.1528  0.1862
    1DIPC   C4B10608  20.313  19.031   3.770 -0.0464  0.2128 -0.1020
    1DIPC   NC310609  10.946   4.026   6.873 -0.3639 -0.2044 -0.1453
    1DIPC   PO410610  10.839   4.089   6.399 -0.0137 -0.0513 -0.3133
    1DIPC   GL110611  10.713   4.047   6.020 -0.0451  0.0185  0.0390
    1DIPC   GL210612  11.065   3.917   5.976 -0.0934  0.0092 -0.1174
    1DIPC   C1A10613  10.523   4.164   5.587 -0.3467 -0.0571  0.2169
    1DIPC   D2A10614  10.264   4.484   5.293 -0.0580 -0.0328 -0.0093
    1DIPC   D3A10615  10.239   4.863   5.108  0.0144 -0.1808  0.1680
    1DIPC   C4A10616  10.400   5.121   4.795  0.2310 -0.2078  0.1287
    1DIPC   C1B10617  11.243   3.507   5.683 -0.0664 -0.1460  0.1325
    1DIPC   D2B10618  11.196   3.124   5.522  0.0236 -0.0454 -0.1959
    1DIPC   D3B10619  11.285   3.314   5.079 -0.0748  0.0889  0.0824
    1DIPC   C4B10620  11.396   3.269   4.654 -0.4218  0.1182  0.0764
    1DIPC   NC310621  25.400   6.806   6.930  0.0983  0.0360 -0.1237
    1DIPC   PO410622  25.245   7.153   6.605 -0.0244 -0.2858  0.0825
    1DIPC   GL110623  25.489   7.012   6.259  0.1446 -0.0923 -0.3108
    1DIPC   GL210624  25.618   7.232   6.009  0.0160 -0.3227  0.0343
    1DIPC   C1A10625  25.455   6.849   5.783 -0.1664  0.1235 -0.0194
    1DIPC   D2A10626  25.432   6.537   5.562  0.1976 -0.2799 -0.0652
    1DIPC   D3A10627  24.939   6.522   5.592 -0.1558  0.0160 -0.0183
    1DIPC   C4A10628  24.782   6.824   5.861  0.3166 -0.3376 -0.3689
    1DIPC   C1B10629  25.504   7.306   5.664 -0.0143  0.0865  0.2264
    1DIPC   D2B10630  25.575   6.957   5.299 -0.0073 -0.1723 -0.1176
    1DIPC   D3B10631  25.563   6.757   4.875 -0.1256 -0.1697  0.0999
    1DIPC   C4B10632  25.806   6.468   4.644  0.0460 -0.0294 -0.0274
    1DIPC   NC310633  27.697   2.428   7.106 -0.3922 -0.0357  0.2106
    1DIPC   PO410634  27.396   2.731   7.277 -0.0796  0.0361  0.2574
    1DIPC   GL110635  27.289   2.936   6.944  0.2551  0.1998  0.3100
    1DIPC   GL210636  27.070   2.761   6.797  0.2111  0.1699  0.0823
    1DIPC   C1A10637  27.270   3.147   6.585  0.0689  0.0451  0.1466
    1DIPC   D2A10638  27.142   3.158   6.205  0.1261 -0.2208  0.1357
    1DIPC   D3A10639  27.339   3.273   5.786 -0.0279 -0.0363  0.0351
    1DIPC   C4A10640  27.302   2.988   5.399 -0.0481 -0.0574  0.1885
    1DIPC   C1B10641  27.315   2.678   6.350 -0.1717  0.2977 -0.1264
    1DIPC   D2B10642  27.421   2.596   5.938  0.0840  0.1670  0.0791
    1DIPC   D3B10643  27.636   2.952   5.955 -0.4764  0.0516  0.1020
    1DIPC   C4B10644  27.799   3.040   6.327 -0.0943 -0.1532 -0.0718
    1DIPC   NC310645  19.008  27.560   6.814  0.4755  0.0129 -0.0896
    1DIPC   PO410646  18.645  27.289   6.679  0.1143 -0.0920 -0.1616
    1DIPC   GL110647  18.691  27.454   6.301 -0.2181  0.1552 -0.0030
    1DIPC   GL210648  18.677  27.186   6.091  0.1601 -0.0674 -0.2413
    1DIPC   C1A10649  19.128  27.589   6.034  0.1960 -0.0243  0.1993
    1DIPC   D2A10650  19.415  27.858   5.655  0.1913  0.1222  0.2365
    1DIPC   D3A10651  19.063  27.764   5.566  0.2745 -0.0248  0.2508
    1DIPC   C4A10652  18.929  27.336   5.641 -0.0501  0.1684 -0.1152
    1DIPC   C1B10653  18.486  27.549   5.794  0.0331  0.0791  0.1225
    1DIPC   D2B10654  18.639  27.584   5.379 -0.0714  0.3180  0.0141
    1DIPC   D3B10655  18.799  27.297   5.083  0.1089  0.1337 -0.0267
    1DIPC   C4B10656  19.215  27.389   5.223  0.2514 -0.0892 -0.2266
    1DIPC   NC310657   3.009  25.496   6.934 -0.1180  0.1019  0.0903
    1DIPC   PO410658   3.432  25.778   7.022  0.0777  0.1581 -0.1301
    1DIPC   GL110659   3.452  25.842   6.560  0.1697 -0.1889 -0.2530
    1DIPC   GL210660   3.706  25.853   6.331 -0.3049 -0.0794 -0.0725
    1DIPC   C1A10661   3.435  26.269   6.271 -0.0022  0.0258  0.0721
    1DIPC   D2A10662   3.204  26.467   5.894 -0.2530 -0.1474  0.3652
    1DIPC   D3A10663   3.209  26.466   5.427  0.0650 -0.2925 -0.1714
    1DIPC   C4A10664   3.023  26.212   5.196 -0.1735  0.0005  0.0797
    1DIPC   C1B10665   3.596  25.872   5.998 -0.0748 -0.0233 -0.1108
    1DIPC   D2B10666   3.650  26.265   5.713  0.2322 -0.1634 -0.0550
    1DIPC   D3B10667   3.828  26.481   6.162  0.0468 -0.2387  0.1648
    1DIPC   C4B10668   3.963  26.903   6.188 -0.1307  0.0908 -0.0900
    1DIPC   NC310669   0.620   4.594   7.072 -0.2819  0.1326 -0.0455
    1DIPC   PO410670   0.204   4.580   7.112  0.0040 -0.3606  0.3490
    1DIPC   GL110671   0.047   4.485   6.717 -0.0610  0.2120  0.1867
    1DIPC   GL210672   0.213   4.537   6.608  0.0509 -0.2077 -0.2166
    1DIPC   C1A10673  30.183   4.255   6.290  0.0739  0.1265  0.1683
    1DIPC   D2A10674  30.283   4.125   5.867 -0.1487  0.1385  0.0018
    1DIPC   D3A10675  30.159   4.250   5.461 -0.0036  0.0688 -0.0224
    1DIPC   C4A10676  29.727   4.455   5.271 -0.2197  0.2140  0.0304
    1DIPC   C1B10677   0.120   4.614   6.038  0.0165 -0.0962 -0.0696
    1DIPC   D2B10678   0.077   4.634   5.531 -0.0754  0.0555 -0.3052
    1DIPC   D3B10679   0.544   4.588   5.481 -0.2742  0.3017 -0.0391
    1DIPC   C4B10680   0.775   4.873   5.605  0.2869  0.2448 -0.0916
    1DIPC   NC310681  12.001  25.909   6.202  0.0681  0.1610 -0.3713
    1DIPC   PO410682  12.212  26.209   6.388  0.4384  0.0930  0.2811
    1DIPC   GL110683  12.312  26.181   5.948 -0.0482  0.1361 -0.0909
    1DIPC   GL210684  12.283  26.453   5.911 -0.1911  0.0825 -0.0239
    1DIPC   C1A10685  12.222  26.089   5.517 -0.0834 -0.1697  0.0574
    1DIPC   D2A10686  12.295  25.933   5.023 -0.1482  0.0546  0.0600
    1DIPC   D3A10687  12.729  25.913   4.983 -0.1645  0.3564  0.2691
    1DIPC   C4A10688  12.999  26.297   5.129  0.1950  0.1003 -0.2620
    1DIPC   C1B10689  11.950  26.699   5.670  0.1898 -0.2286 -0.1779
    1DIPC   D2B10690  11.656  26.623   5.368  0.1467  0.3336 -0.1076
    1DIPC   D3B10691  12.014  26.397   5.158 -0.1317  0.1292  0.0181
    1DIPC   C4B10692  12.490  26.384   5.162  0.1269 -0.1280  0.1902
    1DIPC   NC310693  12.638   9.312   7.325  0.0873  0.0695 -0.1337
    1DIPC   PO410694  13.012   9.007   7.026  0.0416 -0.1895 -0.2307
    1DIPC   GL110695  12.777   9.274   6.654  0.1710 -0.3875 -0.1465
    1DIPC   GL210696  12.472   9.119   6.540 -0.0542 -0.1280  0.1942
    1DIPC   C1A10697  12.874   9.576   6.401 -0.0119 -0.1052 -0.0218
    1DIPC   D2A10698  12.813  10.036   6.403 -0.1418  0.0398 -0.1104
    1DIPC   D3A10699  13.114  10.298   6.568 -0.0049  0.0224  0.1289
    1DIPC   C4A10700  13.544  10.231   6.344 -0.0726 -0.3524  0.1640
    1DIPC   C1B10701  12.123   9.124   6.163  0.3985 -0.2217 -0.3061
    1DIPC   D2B10702  11.955   9.105   5.738  0.1531  0.0173  0.1660
    1DIPC   D3B10703  12.139   8.665   5.763  0.2423 -0.0772  0.4435
    1DIPC   C4B10704  12.257   8.498   5.309 -0.1882 -0.0373 -0.0497
    1DIPC   NC310705  10.846  12.237   6.924 -0.0528  0.3080 -0.0749
    1DIPC   PO410706  10.812  11.853   6.674 -0.0367  0.0300  0.0638
    1DIPC   GL110707  10.973  12.000   6.358  0.0669 -0.0902  0.0218
    1DIPC   GL210708  11.097  11.765   6.204  0.1136  0.2367  0.0205
    1DIPC   C1A10709  10.981  12.338   5.977 -0.2994 -0.2151  0.1652
    1DIPC   D2A10710  11.033  12.501   5.615  0.2201  0.0778  0.2570
    1DIPC   D3A10711  10.691  12.488   5.283 -0.0201 -0.0894  0.0787
    1DIPC   C4A10712  10.493  12.810   5.189  0.3815 -0.0903  0.1616
    1DIPC   C1B10713  11.234  11.938   5.858 -0.1275  0.4749  0.0779
    1DIPC   D2B10714  11.238  11.771   5.305 -0.0824  0.0789 -0.0965
    1DIPC   D3B10715  11.566  11.528   5.162 -0.1523  0.1101  0.3196
    1DIPC   C4B10716  11.645  11.399   4.740  0.1025 -0.2514 -0.0653
    1DIPC   NC310717  16.604   0.963   6.037  0.1475  0.1210 -0.0857
    1DIPC   PO410718  17.017   1.013   6.142  0.1922  0.0106  0.1688
    1DIPC   GL110719  17.010   1.040   5.709  0.1656  0.0868  0.1941
    1DIPC   GL210720  17.308   1.023   5.622 -0.3747  0.0515  0.1550
    1DIPC   C1A10721  17.016   1.356   5.322 -0.3850  0.1439 -0.1783
    1DIPC   D2A10722  17.201   1.729   5.089 -0.0185 -0.0943 -0.1082
    1DIPC   D3A10723  17.408   1.481   4.934 -0.1314  0.1579 -0.1058
    1DIPC   C4A10724  17.317   1.017   4.843  0.1456  0.1696 -0.0070
    1DIPC   C1B10725  17.700   0.783   5.666  0.0116  0.3683  0.2884
    1DIPC   D2B10726  17.798   0.445   5.616  0.0562  0.2186  0.1200
    1DIPC   D3B10727  17.877   0.210   5.810  0.2109  0.1781  0.3204
    1DIPC   C4B10728  18.133  30.280   5.611 -0.1009  0.2070  0.0819
    1DIPC   NC310729  19.889  13.246   6.289 -0.0401 -0.2004  0.1496
    1DIPC   PO410730  19.857  12.831   6.265  0.1510  0.0976  0.5190
    1DIPC   GL110731  19.757  12.809   5.810  0.1528  0.0954  0.6751
    1DIPC   GL210732  19.702  13.163   5.780 -0.0304 -0.0941  0.0061
    1DIPC   C1A10733  19.652  13.057   5.339  0.0520  0.1956 -0.3462
    1DIPC   D2A10734  19.402  13.281   5.045 -0.1627 -0.2981  0.2732
    1DIPC   D3A10735  18.932  13.218   5.257  0.0095 -0.1670  0.0807
    1DIPC   C4A10736  18.949  12.865   5.592 -0.1157  0.0623 -0.0025
    1DIPC   C1B10737  19.269  13.399   5.579 -0.3324  0.1087 -0.0759
    1DIPC   D2B10738  18.968  13.733   5.440  0.0302  0.2756  0.2535
    1DIPC   D3B10739  19.048  13.626   4.953 -0.0723 -0.0100 -0.0293
    1DIPC   C4B10740  19.071  13.293   4.644  0.0517  0.0361 -0.1148
    1DIPC   NC310741  13.253   8.415   6.844 -0.2739 -0.0494  0.2878
    1DIPC   PO410742  13.475   8.370   6.517  0.2394 -0.0267 -0.0332
    1DIPC   GL110743  13.470   8.156   6.168  0.3114  0.1076 -0.1348
    1DIPC   GL210744  13.530   7.861   6.169  0.0259 -0.2578  0.0988
    1DIPC   C1A10745  13.242   8.236   5.735  0.0148 -0.1717 -0.2208
    1DIPC   D2A10746  12.889   8.432   5.498 -0.1596  0.3262  0.1970
    1DIPC   D3A10747  13.103   8.271   5.258 -0.0997  0.0206  0.4683
    1DIPC   C4A10748  13.225   8.572   4.867 -0.1175 -0.1115  0.2421
    1DIPC   C1B10749  13.581   7.842   5.718  0.1317 -0.0182  0.1538
    1DIPC   D2B10750  13.486   7.529   5.453  0.0851  0.2479 -0.0509
    1DIPC   D3B10751  13.258   7.363   5.704 -0.3592  0.0980  0.0610
    1DIPC   C4B10752  12.982   7.091   5.436 -0.3315  0.0453  0.3338
    1DIPC   NC310753  27.992  25.886   6.791  0.1911  0.0455  0.2126
    1DIPC   PO410754  28.438  25.839   6.752  0.0415  0.1105  0.1258
    1DIPC   GL110755  28.367  26.068   6.352  0.3598 -0.2588  0.1261
    1DIPC   GL210756  28.056  25.889   6.278  0.1855 -0.1738  0.0803
    1DIPC   C1A10757  28.376  26.530   6.029  0.1591 -0.0465 -0.4707
    1DIPC   D2A10758  28.024  26.879   6.157 -0.3896  0.0596  0.1044
    1DIPC   D3A10759  28.155  27.152   5.836 -0.2552 -0.1595  0.1804
    1DIPC   C4A10760  28.054  27.192   5.422 -0.0536  0.0891 -0.1593
    1DIPC   C1B10761  28.190  25.758   5.913  0.0925  0.4857 -0.0165
    1DIPC   D2B10762  28.664  25.655   5.893  0.0663 -0.4389  0.0394
    1DIPC   D3B10763  28.437  25.588   5.545  0.2313 -0.0088 -0.0155
    1DIPC   C4B10764  28.390  25.248   5.221  0.0092  0.2393  0.4121
    1DIPC   NC310765   3.348  11.572   7.131 -0.3552  0.0996 -0.1175
    1DIPC   PO410766   3.306  11.715   6.705  0.2276  0.0607  0.0802
    1DIPC   GL110767   3.237  11.736   6.357  0.0573 -0.1780 -0.1179
    1DIPC   GL210768   3.361  11.455   6.239  0.1147 -0.1093  0.0712
    1DIPC   C1A10769   3.085  11.830   5.938 -0.3066 -0.1787  0.1736
    1DIPC   D2A10770   2.658  11.979   5.803  0.0868 -0.0162  0.2170
    1DIPC   D3A10771   2.229  11.915   5.827 -0.2516  0.1172 -0.0845
    1DIPC   C4A10772   2.126  12.139   5.496  0.0950 -0.5349 -0.0805
    1DIPC   C1B10773   3.359  11.166   5.872  0.0075  0.2808 -0.0594
    1DIPC   D2B10774   3.725  10.954   5.694 -0.2204  0.2167 -0.1972
    1DIPC   D3B10775   3.440  10.772   5.404  0.1215 -0.0011  0.2239
    1DIPC   C4B10776   3.406  10.630   5.059  0.2398 -0.1255  0.2583
    1DIPC   NC310777  29.700   9.793   7.507 -0.1683  0.2668 -0.1698
    1DIPC   PO410778  29.262   9.740   7.325  0.3148 -0.0150 -0.0398
    1DIPC   GL110779  29.175   9.646   6.845 -0.1523  0.0438  0.1164
    1DIPC   GL210780  29.193   9.338   6.685  0.3771 -0.0592  0.0425
    1DIPC   C1A10781  29.584   9.623   6.587  0.0727 -0.3625 -0.0093
    1DIPC   D2A10782  29.804   9.670   6.174  0.5742 -0.1177  0.0964
    1DIPC   D3A10783  29.926   9.478   5.741 -0.0370 -0.0312  0.5428
    1DIPC   C4A10784  30.139   9.104   5.760 -0.2429 -0.0310  0.1483
    1DIPC   C1B10785  29.189   9.451   6.212  0.0119 -0.0517 -0.0860
    1DIPC   D2B10786  29.384   9.562   5.818 -0.1018 -0.0142 -0.0100
    1DIPC   D3B10787  29.648   9.946   5.748  0.1214  0.1291  0.0816
    1DIPC   C4B10788  29.619  10.268   5.400 -0.0735 -0.0315  0.2181
    1DIPC   NC310789  28.691   1.550   7.752 -0.1596  0.0025  0.2086
    1DIPC   PO410790  29.001   1.429   7.386 -0.1039 -0.0754 -0.2248
    1DIPC   GL110791  28.867   1.270   7.001  0.0776  0.2282  0.0578
    1DIPC   GL210792  28.812   0.923   6.953 -0.0871  0.1643 -0.0325
    1DIPC   C1A10793  28.996   1.582   6.700 -0.0799  0.0510 -0.1351
    1DIPC   D2A10794  29.263   1.888   6.535  0.0046 -0.1466 -0.0070
    1DIPC   D3A10795  29.296   2.112   6.061 -0.1361  0.1452 -0.0053
    1DIPC   C4A10796  29.078   1.954   5.623 -0.0333  0.1966  0.0473
    1DIPC   C1B10797  28.579   0.627   6.727  0.0288  0.1585  0.0145
    1DIPC   D2B10798  28.631   0.359   6.364  0.0869 -0.0385 -0.0296
    1DIPC   D3B10799  28.858  30.262   6.183  0.0763  0.2603  0.0220
    1DIPC   C4B10800  29.182  30.296   5.908  0.5055  0.3865 -0.2125
    1DIPC   NC310801  20.688   9.793   6.304 -0.0257 -0.2090  0.2808
    1DIPC   PO410802  20.543   9.718   5.947 -0.3610 -0.1563  0.1380
    1DIPC   GL110803  20.518   9.670   5.490  0.1157  0.0465  0.2524
    1DIPC   GL210804  20.763   9.583   5.330 -0.0093  0.1044  0.1158
    1DIPC   C1A10805  20.392   9.583   5.012  0.0054 -0.3855 -0.1064
    1DIPC   D2A10806  20.113   9.438   4.641  0.2637 -0.3239 -0.2206
    1DIPC   D3A10807  20.351   8.978   4.542 -0.3448  0.1619 -0.3186
    1DIPC   C4A10808  20.785   9.015   4.494  0.0074  0.1776  0.2032
    1DIPC   C1B10809  20.891   9.907   4.895 -0.1812 -0.1392  0.1748
    1DIPC   D2B10810  20.901  10.041   4.476 -0.1954  0.3291  0.4002
    1DIPC   D3B10811  20.862   9.805   4.001  0.2735  0.0982 -0.3501
    1DIPC   C4B10812  20.922   9.685   3.540 -0.0729  0.0255  0.1234
    1DIPC   NC310813  25.722   7.206   6.690  0.0369 -0.0127 -0.1936
    1DIPC   PO410814  26.047   7.438   6.429  0.0584  0.3133 -0.1282
    1DIPC   GL110815  26.070   7.446   6.044 -0.1719 -0.0516 -0.0183
    1DIPC   GL210816  25.922   7.757   6.037 -0.0224  0.1624  0.0087
    1DIPC   C1A10817  26.030   7.457   5.626 -0.0052 -0.0411  0.0062
    1DIPC   D2A10818  25.987   7.424   5.227  0.1031 -0.2183 -0.1738
    1DIPC   D3A10819  25.611   7.310   4.957  0.2173  0.2875 -0.0639
    1DIPC   C4A10820  25.520   7.487   4.572 -0.0885  0.1025 -0.2922
    1DIPC   C1B10821  25.580   7.716   5.911  0.1030  0.0324 -0.0698
    1DIPC   D2B10822  25.277   7.864   5.823 -0.2938  0.0788 -0.1863
    1DIPC   D3B10823  25.064   7.630   5.712  0.0945  0.2226  0.1005
    1DIPC   C4B10824  25.082   7.268   5.977 -0.0288 -0.2407 -0.1217
    1DIPC   NC310825  25.819  12.986   6.702  0.0520 -0.0385 -0.0194
    1DIPC   PO410826  26.304  12.861   6.518 -0.2410 -0.3223 -0.2533
    1DIPC   GL110827  26.416  12.723   6.144  0.2660  0.1422  0.0026
    1DIPC   GL210828  26.576  12.473   6.011  0.1106 -0.0072 -0.0654
    1DIPC   C1A10829  26.170  12.675   5.826  0.1207  0.0658  0.1148
    1DIPC   D2A10830  25.961  12.308   5.632 -0.1634  0.0920 -0.2199
    1DIPC   D3A10831  25.893  12.686   5.334  0.1062 -0.2125 -0.6905
    1DIPC   C4A10832  26.155  12.841   5.055 -0.3777  0.1454 -0.3190
    1DIPC   C1B10833  26.885  12.510   5.664 -0.0176  0.0202 -0.0244
    1DIPC   D2B10834  26.953  12.512   5.193 -0.2962  0.0744 -0.2461
    1DIPC   D3B10835  26.983  12.043   5.130 -0.2657  0.0522 -0.0776
    1DIPC   C4B10836  27.023  11.797   5.449  0.3592  0.2174 -0.2128
    1DIPC   NC310837   9.971  12.122   6.830 -0.1649 -0.0098  0.0186
    1DIPC   PO410838  10.334  11.882   6.921 -0.1257 -0.0982 -0.4641
    1DIPC   GL110839  10.320  11.865   6.514  0.0783 -0.0309  0.1477
    1DIPC   GL210840  10.114  11.637   6.388  0.2272 -0.0000  0.1137
    1DIPC   C1A10841  10.372  12.190   6.187  0.1226  0.0828 -0.2111
    1DIPC   D2A10842   9.999  12.397   5.990 -0.0111  0.2664  0.1798
    1DIPC   D3A10843   9.574  12.272   5.891  0.4596 -0.2621  0.0455
    1DIPC   C4A10844   9.208  12.239   6.191  0.2668 -0.1896  0.0947
    1DIPC   C1B10845  10.005  11.854   6.065 -0.0516 -0.1154 -0.1081
    1DIPC   D2B10846  10.122  12.038   5.682 -0.0490 -0.2274 -0.1669
    1DIPC   D3B10847   9.887  12.245   5.446  0.1539 -0.1791 -0.0304
    1DIPC   C4B10848  10.093  12.539   5.127  0.1030 -0.0523  0.2645
    1DIPC   NC310849  22.455   2.565   7.282  0.3459  0.0707  0.1324
    1DIPC   PO410850  22.041   2.458   7.154 -0.2503 -0.0020  0.1017
    1DIPC   GL110851  21.870   2.522   6.692  0.1204 -0.0335  0.2735
    1DIPC   GL210852  21.499   2.529   6.670 -0.3123  0.3154 -0.2000
    1DIPC   C1A10853  21.769   2.713   6.280 -0.1378  0.1602 -0.0870
    1DIPC   D2A10854  21.812   2.547   5.813 -0.0329  0.0835  0.0061
    1DIPC   D3A10855  21.610   2.683   5.469  0.1156  0.0459 -0.1220
    1DIPC   C4A10856  21.717   2.973   5.175 -0.0156 -0.1546  0.0342
    1DIPC   C1B10857  21.290   2.772   6.296  0.0541 -0.3046 -0.0156
    1DIPC   D2B10858  21.322   2.721   5.871  0.1330  0.1457  0.1993
    1DIPC   D3B10859  21.120   2.592   5.485  0.2111  0.3255  0.1184
    1DIPC   C4B10860  21.281   2.566   4.991  0.3201  0.0282 -0.0206
    1DIPC   NC310861  15.953   9.823   6.799 -0.2745 -0.1365 -0.0580
    1DIPC   PO410862  16.095  10.304   6.668 -0.1133 -0.0288  0.0097
    1DIPC   GL110863  16.131  10.428   6.260 -0.1116  0.2716  0.0102
    1DIPC   GL210864  15.914  10.502   6.089 -0.2619  0.3193  0.2030
    1DIPC   C1A10865  16.218  10.652   5.754 -0.0835 -0.0508  0.3054
    1DIPC   D2A10866  15.981  10.625   5.351  0.0665 -0.2622  0.1244
    1DIPC   D3A10867  16.190  10.879   5.314 -0.0307  0.0499  0.2554
    1DIPC   C4A10868  16.317  11.077   4.875  0.2426  0.0242 -0.3109
    1DIPC   C1B10869  15.633  10.221   6.044  0.1970  0.0377  0.3201
    1DIPC   D2B10870  15.566   9.830   6.060 -0.0176 -0.3268  0.0539
    1DIPC   D3B10871  15.721   9.519   5.732 -0.1584  0.0859 -0.2948
    1DIPC   C4B10872  16.164   9.520   5.664 -0.2693  0.0736 -0.1783
    1DIPC   NC310873  12.194   7.355   6.762  0.1804  0.0437 -0.1372
    1DIPC   PO410874  12.183   7.712   6.462  0.3457 -0.1766  0.1999
    1DIPC   GL110875  12.218   7.861   6.027  0.3270  0.0127 -0.1172
    1DIPC   GL210876  12.140   8.171   6.000 -0.0487  0.1251 -0.0589
    1DIPC   C1A10877  12.145   7.917   5.549  0.1258 -0.3557 -0.2128
    1DIPC   D2A10878  12.156   8.015   5.214 -0.1093  0.1608 -0.0813
    1DIPC   D3A10879  11.830   8.120   4.992 -0.1285 -0.1999  0.1542
    1DIPC   C4A10880  11.713   7.943   4.567  0.0622  0.1218 -0.3044
    1DIPC   C1B10881  11.769   8.066   5.856  0.0026 -0.0333  0.1661
    1DIPC   D2B10882  11.420   7.990   5.471  0.0314  0.0595 -0.0451
    1DIPC   D3B10883  11.372   8.026   4.997  0.4373 -0.0472 -0.1032
    1DIPC   C4B10884  11.406   8.447   4.921  0.1293 -0.2537 -0.2602
    1DIPC   NC310885  26.297   6.088   7.033  0.0419  0.0682  0.0716
    1DIPC   PO410886  26.680   6.365   7.026 -0.4432  0.1455 -0.1297
    1DIPC   GL110887  26.508   6.341   6.591  0.0452 -0.0936  0.1140
    1DIPC   GL210888  26.466   6.083   6.544  0.0244 -0.0042 -0.1224
    1DIPC   C1A10889  26.772   6.437   6.276 -0.0972  0.3392  0.1578
    1DIPC   D2A10890  27.192   6.162   6.115  0.0938 -0.0241 -0.1757
    1DIPC   D3A10891  26.829   6.162   5.791  0.1519 -0.2356  0.1367
    1DIPC   C4A10892  26.884   6.327   5.304  0.0550 -0.1425  0.2400
    1DIPC   C1B10893  26.622   5.911   6.210  0.0844 -0.4775 -0.3790
    1DIPC   D2B10894  26.985   5.689   6.044  0.1981 -0.0716 -0.0365
    1DIPC   D3B10895  27.035   5.599   5.542  0.0176  0.2217  0.1972
    1DIPC   C4B10896  27.117   5.910   5.232 -0.4709  0.1656  0.0228
    1DIPC   NC310897   3.750  11.674   6.475  0.1327 -0.1540 -0.1755
    1DIPC   PO410898   4.049  11.653   6.279  0.0888 -0.2581  0.3263
    1DIPC   GL110899   4.139  11.575   5.851  0.4589  0.0090  0.0158
    1DIPC   GL210900   4.164  11.208   5.757  0.0815 -0.3345 -0.1376
    1DIPC   C1A10901   4.163  11.547   5.401  0.0493 -0.3268  0.1448
    1DIPC   D2A10902   4.256  11.303   5.025  0.3243  0.0939  0.1682
    1DIPC   D3A10903   4.214  10.991   4.632 -0.0598 -0.0012 -0.3040
    1DIPC   C4A10904   4.013  10.716   4.354  0.1871 -0.2348 -0.1258
    1DIPC   C1B10905   4.156  11.080   5.456  0.1459 -0.2883 -0.0203
    1DIPC   D2B10906   3.984  10.849   5.168 -0.2471 -0.3291  0.0889
    1DIPC   D3B10907   4.187  10.582   4.876 -0.0359 -0.1416 -0.1268
    1DIPC   C4B10908   4.488  10.626   4.519  0.2209  0.1704  0.1380
    1DIPC   NC310909   3.335   4.701   6.875 -0.1415 -0.0756  0.0617
    1DIPC   PO410910   3.573   5.073   6.867  0.1809 -0.0982 -0.0283
    1DIPC   GL110911   3.385   5.352   6.530  0.0284  0.1249  0.0425
    1DIPC   GL210912   3.508   5.138   6.351 -0.0742  0.1703  0.0800
    1DIPC   C1A10913   3.158   5.336   6.069 -0.2602 -0.0666 -0.1332
    1DIPC   D2A10914   3.282   5.182   5.595  0.1517 -0.3017  0.0262
    1DIPC   D3A10915   3.120   5.341   5.233 -0.2705  0.0817 -0.0359
    1DIPC   C4A10916   3.311   5.110   4.936  0.2332  0.1991  0.3059
    1DIPC   C1B10917   3.542   4.935   5.916  0.0916  0.1266  0.0981
    1DIPC   D2B10918   3.648   4.550   5.745 -0.0173  0.0702  0.1209
    1DIPC   D3B10919   3.412   4.711   5.381 -0.0682  0.0027  0.2075
    1DIPC   C4B10920   3.724   5.095   5.220 -0.0553 -0.0936  0.0205
    1DIPC   NC310921   9.143  25.336   5.958  0.0969 -0.0434  0.0581
    1DIPC   PO410922   8.917  25.017   6.145  0.0950 -0.1438  0.1683
    1DIPC   GL110923   8.613  25.070   5.774 -0.0636 -0.1192  0.1906
    1DIPC   GL210924   8.748  25.328   5.619  0.0955 -0.1944 -0.1209
    1DIPC   C1A10925   8.481  24.981   5.367  0.0513 -0.2665 -0.0850
    1DIPC   D2A10926   8.455  24.791   4.939  0.1594  0.1141 -0.4012
    1DIPC   D3A10927   8.673  24.771   4.566  0.0653 -0.3402  0.0881
    1DIPC   C4A10928   8.465  24.973   4.195  0.0510  0.1363 -0.2881
    1DIPC   C1B10929   8.769  25.517   5.230  0.2019  0.2628 -0.1148
    1DIPC   D2B10930   9.155  25.665   5.073 -0.1623 -0.2258  0.1052
    1DIPC   D3B10931   9.460  25.892   4.854  0.2699  0.2874  0.1865
    1DIPC   C4B10932   9.430  25.812   4.412  0.0222  0.3442  0.1797
    1DIPC   NC310933  11.137  26.419   5.935 -0.3242  0.0921 -0.2369
    1DIPC   PO410934  11.424  26.057   6.193 -0.1299 -0.1054 -0.0358
    1DIPC   GL110935  11.355  25.832   5.799 -0.3138  0.2089 -0.2562
    1DIPC   GL210936  11.398  26.044   5.578 -0.0037  0.0507  0.0043
    1DIPC   C1A10937  11.226  25.583   5.436 -0.1038  0.0038 -0.0496
    1DIPC   D2A10938  11.360  25.184   5.146  0.2535  0.0835 -0.1274
    1DIPC   D3A10939  11.128  24.975   4.751  0.0982 -0.1383 -0.2029
    1DIPC   C4A10940  11.266  25.296   4.502  0.1053 -0.0882 -0.2037
    1DIPC   C1B10941  11.422  26.248   5.123  0.0349 -0.2273  0.3586
    1DIPC   D2B10942  11.297  26.463   4.753 -0.2227  0.2979  0.3430
    1DIPC   D3B10943  11.301  25.984   4.604  0.0817 -0.0585 -0.0739
    1DIPC   C4B10944  11.434  25.771   4.912 -0.0129  0.1783 -0.1594
    1DIPC   NC310945   4.651   8.258   6.883  0.1435 -0.1989 -0.1965
    1DIPC   PO410946   4.729   8.108   6.478 -0.1321  0.3569 -0.0694
    1DIPC   GL110947   5.238   8.260   6.319  0.0915 -0.1613  0.3251
    1DIPC   GL210948   5.574   8.142   6.424 -0.0212 -0.2239  0.0750
    1DIPC   C1A10949   5.125   8.308   5.891 -0.2411 -0.0528 -0.4703
    1DIPC   D2A10950   4.942   8.353   5.531 -0.0586  0.3128  0.0682
    1DIPC   D3A10951   5.059   7.922   5.432  0.0313  0.1346  0.0567
    1DIPC   C4A10952   5.114   8.046   5.058 -0.0077 -0.0953 -0.0339
    1DIPC   C1B10953   5.598   7.956   6.078 -0.0085 -0.0176  0.0877
    1DIPC   D2B10954   5.530   7.884   5.678  0.2421 -0.3713  0.2540
    1DIPC   D3B10955   5.177   7.776   5.894 -0.0684  0.0885 -0.0628
    1DIPC   C4B10956   4.688   7.892   5.805 -0.0484  0.0015 -0.2556
    1DIPC   NC310957  18.264  29.886   6.778 -0.3460 -0.0955 -0.3325
    1DIPC   PO410958  17.962  29.695   6.522  0.1629  0.1789 -0.2142
    1DIPC   GL110959  17.924  29.358   6.239 -0.0731  0.3891 -0.3838
    1DIPC   GL210960  18.208  29.198   6.183  0.0848  0.0900 -0.0875
    1DIPC   C1A10961  17.615  29.160   6.073  0.3216  0.0172 -0.1995
    1DIPC   D2A10962  17.387  29.089   5.680  0.1957 -0.3339 -0.0535
    1DIPC   D3A10963  17.307  29.377   5.193 -0.1568  0.0679  0.1372
    1DIPC   C4A10964  17.539  29.335   4.913  0.3647 -0.0024 -0.0170
    1DIPC   C1B10965  18.063  29.203   5.663  0.2579  0.1689 -0.1458
    1DIPC   D2B10966  17.751  29.372   5.364  0.0554 -0.2590  0.0582
    1DIPC   D3B10967  17.855  29.760   5.261 -0.1444  0.0824 -0.4728
    1DIPC   C4B10968  17.885  29.661   4.778 -0.3157  0.0128 -0.2658
    1DIPC   NC310969  22.160   3.361   7.155  0.0137 -0.2448 -0.0371
    1DIPC   PO410970  22.321   3.061   7.005  0.0859  0.1198 -0.0815
    1DIPC   GL110971  22.202   2.831   6.574 -0.0103  0.0673 -0.0727
    1DIPC   GL210972  22.250   3.041   6.455  0.2409  0.2280 -0.0026
    1DIPC   C1A10973  22.262   2.507   6.286  0.2391 -0.0818 -0.2834
    1DIPC   D2A10974  22.322   2.321   5.928 -0.0829  0.3404  0.3646
    1DIPC   D3A10975  22.706   2.601   5.906 -0.3656  0.0630  0.0091
    1DIPC   C4A10976  22.631   2.829   6.298 -0.1145 -0.3858  0.0838
    1DIPC   C1B10977  21.955   3.257   6.154 -0.1108  0.4321  0.2084
    1DIPC   D2B10978  21.794   3.036   5.747 -0.4029  0.2460  0.1317
    1DIPC   D3B10979  21.394   3.112   5.550  0.2011  0.3131  0.0859
    1DIPC   C4B10980  21.196   3.481   5.643  0.2766 -0.1610 -0.1110
    1DIPC   NC310981  24.722  26.537   7.035 -0.1498  0.3443 -0.1401
    1DIPC   PO410982  24.769  26.922   6.973 -0.0610 -0.0315 -0.0575
    1DIPC   GL110983  24.558  26.836   6.572 -0.3522 -0.3934 -0.1923
    1DIPC   GL210984  24.492  27.067   6.345  0.1349 -0.0226  0.1893
    1DIPC   C1A10985  24.520  26.577   6.136  0.0664  0.0275  0.2483
    1DIPC   D2A10986  24.779  26.431   5.755 -0.2850  0.5003 -0.2403
    1DIPC   D3A10987  25.018  26.815   5.971  0.2173  0.1472 -0.1222
    1DIPC   C4A10988  25.311  27.078   5.709 -0.1342  0.1076 -0.1511
    1DIPC   C1B10989  24.094  26.737   6.369 -0.3206  0.1064  0.0751
    1DIPC   D2B10990  23.635  26.683   6.245 -0.2330  0.0174 -0.0234
    1DIPC   D3B10991  23.220  26.900   6.286 -0.1965 -0.2319 -0.2318
    1DIPC   C4B10992  23.028  26.614   5.914 -0.1214 -0.4634  0.0049
    1DIPC   NC310993   6.071   4.195   7.189  0.0036 -0.2717 -0.0098
    1DIPC   PO410994   5.861   4.000   6.867  0.0351  0.0420  0.4124
    1DIPC   GL110995   5.641   3.890   6.603 -0.1424 -0.2549 -0.0169
    1DIPC   GL210996   5.312   3.722   6.619  0.3613  0.2357 -0.0620
    1DIPC   C1A10997   5.519   3.888   6.132 -0.1867  0.0251  0.0468
    1DIPC   D2A10998   5.697   3.675   5.741  0.1637  0.1715 -0.1908
    1DIPC   D3A10999   5.933   3.210   5.687 -0.1806 -0.1832  0.3765
    1DIPC   C4A11000   5.827   2.913   5.290  0.0743 -0.0330 -0.1287
    1DIPC   C1B11001   5.216   3.281   6.324  0.1437 -0.2834 -0.0260
    1DIPC   D2B11002   5.383   3.269   5.917  0.2276  0.0459  0.2055
    1DIPC   D3B11003   5.326   2.750   6.153 -0.0090  0.0097 -0.3515
    1DIPC   C4B11004   5.555   2.457   6.123 -0.0939  0.1838  0.0630
    1DIPC   NC311005  20.178  16.029   6.124  0.0742  0.2531  0.0066
    1DIPC   PO411006  20.334  16.373   6.153  0.2433  0.0792  0.0188
    1DIPC   GL111007  20.293  16.496   5.685  0.2352  0.1501 -0.2289
    1DIPC   GL211008  20.145  16.735   5.694 -0.0836  0.0515  0.0249
    1DIPC   C1A11009  20.201  16.221   5.347  0.2539  0.0680  0.1385
    1DIPC   D2A11010  20.110  16.000   4.951  0.2896  0.3532  0.1423
    1DIPC   D3A11011  19.737  15.680   5.107 -0.0483  0.1695  0.0510
    1DIPC   C4A11012  19.498  15.446   4.779 -0.0007  0.1745 -0.1530
    1DIPC   C1B11013  19.793  16.514   5.471  0.2019  0.0112 -0.1320
    1DIPC   D2B11014  19.617  16.265   5.092 -0.0596  0.0177  0.0603
    1DIPC   D3B11015  19.666  16.020   4.674  0.0976  0.1150 -0.2895
    1DIPC   C4B11016  19.245  15.890   4.502 -0.0069 -0.1903  0.0095
    1DIPC   NC311017  19.839   3.247   6.502  0.1187  0.0510 -0.2379
    1DIPC   PO411018  19.650   3.529   6.817  0.0455 -0.4463  0.3350
    1DIPC   GL111019  19.874   3.745   6.445 -0.2511 -0.0298  0.0135
    1DIPC   GL211020  19.694   3.718   6.146 -0.1103  0.1730  0.0547
    1DIPC   C1A11021  20.021   4.129   6.117  0.2082  0.1289  0.0818
    1DIPC   D2A11022  20.268   4.419   5.958  0.1640 -0.1286  0.1111
    1DIPC   D3A11023  19.857   4.593   6.122 -0.0000 -0.0973 -0.1898
    1DIPC   C4A11024  19.572   4.484   5.838  0.1832 -0.3400  0.0078
    1DIPC   C1B11025  19.610   4.019   5.786 -0.0045  0.2999 -0.0738
    1DIPC   D2B11026  19.633   4.114   5.310  0.1430  0.1272  0.0027
    1DIPC   D3B11027  19.928   4.239   5.554  0.0895 -0.3766  0.1957
    1DIPC   C4B11028  19.983   4.618   5.508  0.4107 -0.1056 -0.2959
    1DIPC   NC311029  20.127  18.177   5.468  0.1575  0.0469  0.1716
    1DIPC   PO411030  19.724  18.065   5.563  0.3730 -0.0966 -0.0241
    1DIPC   GL111031  19.752  18.346   5.216 -0.1420 -0.2180 -0.0656
    1DIPC   GL211032  19.727  17.968   5.053 -0.0848 -0.1519 -0.2490
    1DIPC   C1A11033  19.890  18.422   4.829 -0.1384 -0.1893  0.0070
    1DIPC   D2A11034  19.733  18.610   4.584 -0.0127 -0.3397 -0.0261
    1DIPC   D3A11035  20.062  18.756   4.229  0.3705  0.2484  0.2308
    1DIPC   C4A11036  19.808  18.824   3.957  0.0152  0.0276 -0.1510
    1DIPC   C1B11037  19.461  17.651   4.952 -0.1552 -0.2592 -0.0460
    1DIPC   D2B11038  19.100  17.643   4.612 -0.0922 -0.1628 -0.0947
    1DIPC   D3B11039  19.484  17.505   4.475 -0.2012  0.0256 -0.4213
    1DIPC   C4B11040  19.854  17.777   4.591  0.2090  0.3364 -0.0294
    1DIPC   NC311041  11.207   4.804   6.130  0.1676  0.0798  0.1450
    1DIPC   PO411042  11.094   4.418   6.026 -0.1406 -0.1964 -0.2508
    1DIPC   GL111043  11.090   4.241   5.611  0.3365 -0.0043 -0.2541
    1DIPC   GL211044  11.112   3.921   5.453 -0.0850  0.0036  0.0949
    1DIPC   C1A11045  11.418   4.268   5.300 -0.0339  0.0477 -0.0316
    1DIPC   D2A11046  11.845   4.146   5.071 -0.1128 -0.0094  0.0319
    1DIPC   D3A11047  11.873   4.184   4.543 -0.1126  0.2165 -0.2007
    1DIPC   C4A11048  11.574   4.326   4.369  0.4437 -0.1866 -0.1824
    1DIPC   C1B11049  10.857   4.116   5.139  0.0223  0.1430 -0.2385
    1DIPC   D2B11050  11.211   4.266   4.769 -0.3448  0.0317  0.2331
    1DIPC   D3B11051  11.033   4.642   4.707  0.0701 -0.1370 -0.1248
    1DIPC   C4B11052  11.336   4.729   4.405 -0.0272 -0.2219  0.0175
    1DIPC   NC311053  12.790  28.805   6.572  0.0637 -0.2983 -0.2067
    1DIPC   PO411054  13.032  29.131   6.721  0.2775  0.2081 -0.4765
    1DIPC   GL111055  13.029  29.153   6.316  0.0282 -0.1756  0.1004
    1DIPC   GL211056  13.018  28.853   6.141  0.0357  0.0503 -0.0116
    1DIPC   C1A11057  13.099  29.310   5.999 -0.1022 -0.0279 -0.0875
    1DIPC   D2A11058  13.062  29.603   5.651 -0.0693  0.3870 -0.1587
    1DIPC   D3A11059  12.869  29.247   5.563 -0.0059 -0.2146  0.0014
    1DIPC   C4A11060  13.058  29.081   5.143 -0.0055  0.0663 -0.0752
    1DIPC   C1B11061  12.894  28.818   5.728 -0.5516 -0.0119  0.0773
    1DIPC   D2B11062  12.532  28.651   5.688  0.0178 -0.0640 -0.2913
    1DIPC   D3B11063  12.559  28.789   5.300  0.0839  0.0450 -0.1406
    1DIPC   C4B11064  12.672  28.369   4.987 -0.0320  0.0520 -0.2312
    1DIPC   NC311065  19.895  15.261   6.468 -0.3594  0.0225  0.1838
    1DIPC   PO411066  19.885  15.635   6.184  0.0206 -0.2861 -0.1107
    1DIPC   GL111067  19.579  15.930   6.014  0.1452  0.0900  0.0984
    1DIPC   GL211068  19.273  15.836   5.872 -0.4243 -0.1832  0.3273
    1DIPC   C1A11069  19.516  16.187   5.694 -0.0862  0.0356  0.1087
    1DIPC   D2A11070  19.402  15.921   5.372 -0.1011 -0.0796 -0.2844
    1DIPC   D3A11071  19.095  16.084   5.021  0.0681 -0.2964 -0.2846
    1DIPC   C4A11072  18.659  15.954   4.843  0.0624 -0.1800 -0.1414
    1DIPC   C1B11073  19.364  15.496   5.633 -0.0293 -0.0764 -0.1533
    1DIPC   D2B11074  19.305  15.125   5.485 -0.1316  0.0870 -0.1227
    1DIPC   D3B11075  19.494  15.061   5.114  0.2271 -0.0030 -0.0487
    1DIPC   C4B11076  19.247  14.925   4.720 -0.0058  0.2324  0.2643
    1DIPC   NC311077  17.286  10.294   6.104 -0.0309  0.0073 -0.0571
    1DIPC   PO411078  16.952  10.038   6.254  0.0063 -0.1449  0.2313
    1DIPC   GL111079  16.739  10.197   5.909 -0.0855  0.0648  0.0200
    1DIPC   GL211080  16.464  10.177   5.952  0.1063 -0.1877 -0.1762
    1DIPC   C1A11081  16.710  10.475   5.633  0.2464  0.1715 -0.0430
    1DIPC   D2A11082  16.494  10.401   5.351  0.1578 -0.1271  0.0250
    1DIPC   D3A11083  16.370  10.568   4.974  0.0572  0.0086 -0.2732
    1DIPC   C4A11084  16.514  10.502   4.511 -0.1487  0.2363  0.1949
    1DIPC   C1B11085  16.037  10.112   5.689 -0.1356  0.0020 -0.0832
    1DIPC   D2B11086  15.864   9.919   5.438 -0.0421 -0.2152 -0.0372
    1DIPC   D3B11087  15.613  10.238   5.405  0.2149  0.1273 -0.0581
    1DIPC   C4B11088  15.247  10.232   5.752 -0.2443 -0.1173  0.0059
    1DIPC   NC311089  18.225  13.634   7.440 -0.0601 -0.4270  0.3473
    1DIPC   PO411090  18.358  13.788   6.945 -0.0001 -0.0090  0.1042
    1DIPC   GL111091  18.099  13.531   6.567 -0.0524  0.4339  0.0544
    1DIPC   GL211092  17.689  13.404   6.566  0.1568 -0.1731 -0.0641
    1DIPC   C1A11093  17.920  13.531   6.136  0.1649 -0.2183  0.0302
    1DIPC   D2A11094  17.691  13.137   6.072  0.0756  0.0692 -0.0193
    1DIPC   D3A11095  17.322  13.104   6.201 -0.4623 -0.3033  0.0304
    1DIPC   C4A11096  17.089  13.211   5.845 -0.1081 -0.0754 -0.2447
    1DIPC   C1B11097  17.429  13.553   6.172 -0.2197  0.0261  0.2081
    1DIPC   D2B11098  17.610  13.961   5.797  0.0949 -0.0622 -0.1175
    1DIPC   D3B11099  17.320  14.067   5.372 -0.0110 -0.2796  0.1649
    1DIPC   C4B11100  16.983  14.225   5.544 -0.0290 -0.0785 -0.1769
    1DIPC   NC311101  16.087   8.314   6.033 -0.0368 -0.3313  0.1986
    1DIPC   PO411102  16.425   8.067   5.809 -0.1121  0.5429  0.1131
    1DIPC   GL111103  16.656   8.227   5.457 -0.0820  0.2544 -0.4376
    1DIPC   GL211104  16.621   8.107   5.210  0.3463  0.2297 -0.0863
    1DIPC   C1A11105  16.431   8.530   5.361 -0.3347  0.0632 -0.0586
    1DIPC   D2A11106  16.059   8.732   5.339 -0.1600 -0.1339 -0.1151
    1DIPC   D3A11107  16.334   8.771   4.963 -0.1491 -0.0956 -0.1475
    1DIPC   C4A11108  16.251   8.747   4.530 -0.1483 -0.0004  0.0730
    1DIPC   C1B11109  16.367   8.311   4.880 -0.0910  0.2337  0.0663
    1DIPC   D2B11110  16.302   8.190   4.446  0.0530 -0.1458  0.2682
    1DIPC   D3B11111  16.377   8.514   4.100 -0.0077  0.0731  0.0087
    1DIPC   C4B11112  16.074   8.465   3.683 -0.0664  0.1976  0.2019
    1DIPC   NC311113  10.010  18.630   6.129  0.1154 -0.0283  0.0360
    1DIPC   PO411114  10.472  18.549   6.129  0.2068  0.0929  0.1825
    1DIPC   GL111115  10.485  18.314   5.743 -0.4984  0.0109  0.1159
    1DIPC   GL211116  10.635  18.528   5.545 -0.1918 -0.0899 -0.1126
    1DIPC   C1A11117  10.612  18.129   5.279  0.0978  0.2222  0.0092
    1DIPC   D2A11118  10.322  17.761   5.001  0.3272 -0.1389  0.0381
    1DIPC   D3A11119   9.920  17.928   4.850 -0.0301  0.0583 -0.0130
    1DIPC   C4A11120   9.850  17.875   4.446  0.0246 -0.5719  0.1588
    1DIPC   C1B11121  10.727  18.592   5.110 -0.0646 -0.0768  0.0180
    1DIPC   D2B11122  10.827  18.617   4.705  0.0256  0.1067  0.0387
    1DIPC   D3B11123  10.547  18.400   4.281 -0.0811 -0.0642 -0.1730
    1DIPC   C4B11124  10.037  18.526   4.123 -0.1572  0.0868 -0.0244
    1DIPC   NC311125  24.795  22.018   6.044 -0.0778 -0.0253 -0.3985
    1DIPC   PO411126  24.435  22.372   6.185  0.0275  0.0886  0.0791
    1DIPC   GL111127  24.433  22.589   5.896 -0.1305 -0.0612 -0.0341
    1DIPC   GL211128  24.397  22.295   5.653 -0.0036  0.0447  0.0296
    1DIPC   C1A11129  24.440  23.058   5.856 -0.0780  0.2767  0.0113
    1DIPC   D2A11130  24.596  23.444   5.902  0.1068 -0.2026  0.0363
    1DIPC   D3A11131  24.743  23.360   5.541 -0.1968  0.0089  0.0920
    1DIPC   C4A11132  24.446  23.188   5.275  0.0481  0.1289 -0.1728
    1DIPC   C1B11133  24.308  22.720   5.450 -0.1864 -0.0214  0.0067
    1DIPC   D2B11134  24.282  22.777   4.971 -0.2585  0.1039 -0.0908
    1DIPC   D3B11135  24.276  23.062   4.656  0.0736 -0.2897  0.0529
    1DIPC   C4B11136  24.735  23.135   4.576  0.1284 -0.0292 -0.1277
    1DIPC   NC311137  22.859  24.975   7.037  0.0458  0.1517 -0.0560
    1DIPC   PO411138  23.117  24.997   6.543  0.0791 -0.1351  0.1319
    1DIPC   GL111139  23.173  25.359   6.215  0.0218 -0.1196  0.1199
    1DIPC   GL211140  23.596  25.412   6.109  0.0011 -0.2354  0.1553
    1DIPC   C1A11141  23.231  25.408   5.714  0.1078  0.1047  0.1830
    1DIPC   D2A11142  23.005  25.278   5.443  0.0103  0.1339  0.0181
    1DIPC   D3A11143  23.163  25.439   5.087  0.2826 -0.0011 -0.2064
    1DIPC   C4A11144  23.514  25.513   5.308  0.0711  0.1021  0.1055
    1DIPC   C1B11145  23.740  25.335   5.778 -0.3035  0.0449  0.2638
    1DIPC   D2B11146  23.973  25.676   5.532 -0.2643  0.1590  0.0400
    1DIPC   D3B11147  23.697  25.861   5.853  0.0346  0.1005 -0.0387
    1DIPC   C4B11148  23.900  26.272   6.014 -0.2079 -0.0182  0.4818
    1DIPC   NC311149   5.926   2.620   7.290  0.2073  0.1542  0.0529
    1DIPC   PO411150   5.921   3.029   7.168  0.0580  0.0484  0.1833
    1DIPC   GL111151   5.922   2.897   6.762 -0.0929 -0.0215 -0.3223
    1DIPC   GL211152   5.852   2.585   6.713 -0.0811 -0.1410 -0.0933
    1DIPC   C1A11153   5.793   2.927   6.295 -0.2074 -0.0563  0.2970
    1DIPC   D2A11154   5.968   2.812   5.994  0.0467  0.3237 -0.3743
    1DIPC   D3A11155   6.032   2.466   5.660  0.5604 -0.0562  0.1872
    1DIPC   C4A11156   5.689   2.159   5.706  0.0168 -0.1078  0.1206
    1DIPC   C1B11157   6.354   2.689   6.651  0.0910 -0.0268  0.0459
    1DIPC   D2B11158   6.762   2.976   6.682 -0.0663 -0.0936 -0.1144
    1DIPC   D3B11159   6.542   2.909   6.249  0.2483  0.0126 -0.0422
    1DIPC   C4B11160   6.423   2.537   6.166 -0.0541  0.2002 -0.0126
    1DIPC   NC311161  11.381  24.789   6.418  0.1712 -0.1848  0.0850
    1DIPC   PO411162  11.849  24.648   6.399  0.3531 -0.1382 -0.1075
    1DIPC   GL111163  12.060  24.660   6.039  0.0552 -0.0359 -0.3091
    1DIPC   GL211164  12.145  25.032   5.882  0.2524 -0.2045 -0.1472
    1DIPC   C1A11165  11.898  24.654   5.618  0.1520  0.0919  0.3606
    1DIPC   D2A11166  11.877  24.865   5.234  0.0421 -0.0248 -0.1571
    1DIPC   D3A11167  11.668  24.881   4.864 -0.2901  0.2277  0.0085
    1DIPC   C4A11168  11.326  24.508   4.796 -0.3402  0.2177  0.0841
    1DIPC   C1B11169  12.326  24.984   5.421  0.3253  0.1724 -0.0195
    1DIPC   D2B11170  12.259  25.058   4.956  0.0504  0.2395  0.0213
    1DIPC   D3B11171  12.453  25.482   4.907  0.2767  0.1047  0.1241
    1DIPC   C4B11172  12.583  25.557   4.611  0.0970  0.1391  0.1776
    1DIPC   NC311173  18.371  28.313   7.372 -0.0875  0.2804 -0.2451
    1DIPC   PO411174  18.725  28.315   7.071 -0.1304 -0.0263 -0.0352
    1DIPC   GL111175  18.903  28.052   6.730 -0.1354 -0.0870  0.3075
    1DIPC   GL211176  19.096  28.295   6.616 -0.0018 -0.0135  0.1845
    1DIPC   C1A11177  18.719  28.046   6.215 -0.0483  0.0232 -0.0079
    1DIPC   D2A11178  18.701  28.011   5.759  0.0960 -0.2217 -0.1176
    1DIPC   D3A11179  18.275  28.150   5.628 -0.3816 -0.1205 -0.1940
    1DIPC   C4A11180  18.150  28.484   5.407 -0.0370 -0.1368  0.0000
    1DIPC   C1B11181  19.191  28.655   6.256 -0.0015  0.3563  0.1016
    1DIPC   D2B11182  19.407  28.664   5.814  0.4291  0.0751 -0.2737
    1DIPC   D3B11183  19.839  28.614   5.816 -0.0437 -0.1942  0.1063
    1DIPC   C4B11184  20.088  28.588   5.510 -0.0060 -0.1420  0.3367
    1DIPC   NC311185   5.031  10.810   6.854 -0.1976 -0.1137 -0.0351
    1DIPC   PO411186   4.897  10.869   6.398 -0.0526 -0.0632  0.2077
    1DIPC   GL111187   4.929  11.029   5.909  0.0159  0.0010  0.0841
    1DIPC   GL211188   4.632  11.263   5.842 -0.2302 -0.2235 -0.1306
    1DIPC   C1A11189   5.100  11.165   5.513 -0.0160  0.1129 -0.1580
    1DIPC   D2A11190   5.300  11.302   5.061 -0.0605 -0.2970  0.1825
    1DIPC   D3A11191   5.072  11.633   5.002  0.1890  0.0239 -0.1492
    1DIPC   C4A11192   5.006  11.986   5.302  0.1534 -0.2269 -0.1438
    1DIPC   C1B11193   4.714  11.425   5.390  0.0489 -0.2146 -0.0668
    1DIPC   D2B11194   4.591  11.665   5.202 -0.0767  0.1694 -0.2036
    1DIPC   D3B11195   4.581  11.715   4.836  0.0140  0.0577 -0.1525
    1DIPC   C4B11196   4.947  11.947   4.504 -0.0650 -0.2190 -0.0021
    1DIPC   NC311197  29.505  26.612   6.929  0.0346 -0.3221  0.1325
    1DIPC   PO411198  29.725  26.974   6.990  0.0294 -0.1085  0.3759
    1DIPC   GL111199  29.677  26.825   6.513  0.0531  0.0493  0.1931
    1DIPC   GL211200  29.872  26.642   6.218  0.1709  0.0960  0.0318
    1DIPC   C1A11201  29.461  26.973   6.207  0.0095 -0.1033  0.0469
    1DIPC   D2A11202  29.331  26.835   5.832 -0.0441 -0.0406 -0.3320
    1DIPC   D3A11203  29.464  26.827   5.318  0.0179  0.3512 -0.1964
    1DIPC   C4A11204  29.464  26.801   4.828 -0.1537  0.0655  0.0284
    1DIPC   C1B11205  29.791  26.728   5.841 -0.0332  0.0905 -0.1640
    1DIPC   D2B11206  29.942  26.823   5.381 -0.0800 -0.1153 -0.2135
    1DIPC   D3B11207  29.957  26.664   5.043  0.1156  0.2131 -0.3910
    1DIPC   C4B11208  30.211  26.407   4.859  0.2265 -0.0270 -0.2719
    1DIPC   NC311209   0.716   3.762   7.092  0.1245 -0.0442  0.0348
    1DIPC   PO411210   0.903   4.174   7.144 -0.3504  0.2668  0.1131
    1DIPC   GL111211   0.888   4.004   6.705  0.1329 -0.3406  0.0441
    1DIPC   GL211212   1.133   4.142   6.545  0.0874 -0.1533 -0.0365
    1DIPC   C1A11213   0.824   3.762   6.398 -0.2042 -0.2110  0.2503
    1DIPC   D2A11214   0.840   3.525   5.997  0.0296  0.0509 -0.0681
    1DIPC   D3A11215   1.218   3.628   6.110  0.0448  0.0566  0.1836
    1DIPC   C4A11216   1.535   3.199   6.086  0.0603  0.0659  0.0547
    1DIPC   C1B11217   1.097   4.189   6.095  0.1569  0.1307 -0.0227
    1DIPC   D2B11218   1.000   4.431   5.672  0.0445  0.2587 -0.1844
    1DIPC   D3B11219   1.096   4.209   5.296  0.3841  0.3026  0.0210
    1DIPC   C4B11220   1.354   3.871   5.225 -0.0232 -0.0872  0.1902
    1DIPC   NC311221  15.422  30.068   6.964 -0.0861 -0.3232 -0.2696
    1DIPC   PO411222  15.154  30.114   6.520 -0.1689 -0.3449 -0.1409
    1DIPC   GL111223  14.960  29.969   6.143 -0.1147  0.1448 -0.1466
    1DIPC   GL211224  14.962  29.695   6.178 -0.1824 -0.1590 -0.1648
    1DIPC   C1A11225  14.685  30.029   5.716  0.2422 -0.0517  0.1894
    1DIPC   D2A11226  14.808  30.005   5.210  0.3007 -0.1078 -0.2778
    1DIPC   D3A11227  15.175  30.073   5.017  0.2228 -0.1371 -0.2788
    1DIPC   C4A11228  15.157   0.075   4.670 -0.0151 -0.1675  0.1097
    1DIPC   C1B11229  15.114  29.776   5.642  0.2223 -0.3322 -0.1745
    1DIPC   D2B11230  15.106  29.602   5.226 -0.4155  0.0320 -0.1146
    1DIPC   D3B11231  15.028  29.669   4.795 -0.0081  0.1287  0.1232
    1DIPC   C4B11232  14.748  29.345   4.694  0.3318 -0.1043  0.1647
    1DIPC   NC311233   9.688  17.929   6.140  0.0496  0.3038 -0.2189
    1DIPC   PO411234   9.397  17.723   5.893 -0.1266  0.0813  0.3005
    1DIPC   GL111235   9.292  17.632   5.543 -0.2817  0.0376  0.1636
    1DIPC   GL211236   9.543  17.343   5.555  0.0037 -0.0563 -0.0717
    1DIPC   C1A11237   9.017  17.689   5.215 -0.1816 -0.1161 -0.0344
    1DIPC   D2A11238   8.942  17.732   4.862 -0.1919 -0.1761  0.0717
    1DIPC   D3A11239   9.369  17.841   4.592  0.1216  0.1909  0.0709
    1DIPC   C4A11240   9.566  18.290   4.667  0.2706  0.0663 -0.0430
    1DIPC   C1B11241   9.344  17.361   5.106  0.3274  0.1837 -0.2634
    1DIPC   D2B11242   9.151  17.269   4.745 -0.2827 -0.0282 -0.0010
    1DIPC   D3B11243   9.013  17.557   4.358 -0.0071  0.0193 -0.1827
    1DIPC   C4B11244   8.766  17.495   3.921  0.0504 -0.3842 -0.1338
    1DIPC   NC311245  17.539  12.844   6.538 -0.0509 -0.1983  0.0886
    1DIPC   PO411246  17.192  12.994   6.863 -0.0080  0.0047  0.1140
    1DIPC   GL111247  16.928  12.864   6.455 -0.0488 -0.2821  0.2030
    1DIPC   GL211248  17.140  12.612   6.237 -0.3635 -0.0923  0.1369
    1DIPC   C1A11249  16.830  13.202   6.263 -0.1715 -0.1578  0.2831
    1DIPC   D2A11250  16.695  13.495   5.896 -0.0699 -0.0485  0.0181
    1DIPC   D3A11251  16.647  13.820   6.199 -0.3414  0.1068  0.0549
    1DIPC   C4A11252  16.344  13.714   6.533 -0.0052 -0.1204 -0.1566
    1DIPC   C1B11253  16.935  12.734   5.819 -0.2843 -0.3762  0.2501
    1DIPC   D2B11254  16.676  12.523   5.476 -0.2117 -0.2281 -0.3015
    1DIPC   D3B11255  16.966  12.501   5.121 -0.2516  0.0420 -0.1445
    1DIPC   C4B11256  17.418  12.489   5.106  0.1340 -0.0388 -0.1666
    1DIPC   NC311257  24.880  15.250   6.490  0.0014 -0.1018  0.0718
    1DIPC   PO411258  24.623  14.941   6.422 -0.0372 -0.0741 -0.1879
    1DIPC   GL111259  24.567  15.214   6.044 -0.0228  0.1581 -0.0156
    1DIPC   GL211260  24.717  15.514   6.091 -0.1620 -0.0648 -0.1135
    1DIPC   C1A11261  24.553  14.925   5.727 -0.1577  0.1673  0.1286
    1DIPC   D2A11262  24.176  14.712   5.501 -0.1600  0.0511  0.0008
    1DIPC   D3A11263  24.551  14.759   5.280  0.2242 -0.1277  0.1696
    1DIPC   C4A11264  24.901  14.859   5.386  0.2282  0.4670 -0.1778
    1DIPC   C1B11265  25.076  15.452   5.786 -0.2748  0.2653  0.2322
    1DIPC   D2B11266  25.231  15.389   5.315 -0.0031  0.1019  0.0123
    1DIPC   D3B11267  25.644  15.228   5.262  0.2683  0.3079 -0.2428
    1DIPC   C4B11268  25.878  15.391   4.945  0.0567  0.1046  0.3086
    1DIPC   NC311269  15.347   1.051   6.732 -0.2391 -0.0571  0.1781
    1DIPC   PO411270  15.703   1.250   6.483  0.1542  0.3128  0.0139
    1DIPC   GL111271  15.833   1.209   6.023  0.0016 -0.1287 -0.0786
    1DIPC   GL211272  16.106   1.152   5.975  0.0670 -0.2486  0.0599
    1DIPC   C1A11273  15.614   1.327   5.681  0.1607 -0.0096  0.3370
    1DIPC   D2A11274  15.310   1.541   5.475 -0.0007 -0.0167 -0.0651
    1DIPC   D3A11275  15.499   1.676   5.093 -0.0121 -0.2238 -0.1653
    1DIPC   C4A11276  15.351   1.796   4.631 -0.1529 -0.1505 -0.0401
    1DIPC   C1B11277  16.039   1.053   5.565 -0.1946  0.3658  0.0034
    1DIPC   D2B11278  15.765   1.191   5.229 -0.1356 -0.2832 -0.0062
    1DIPC   D3B11279  15.446   0.887   4.950 -0.0072  0.0485  0.0480
    1DIPC   C4B11280  15.601   0.571   4.612 -0.1017  0.1240 -0.1970
    1DIPC   NC311281  22.895  20.461   5.579  0.0896  0.2798 -0.2589
    1DIPC   PO411282  22.516  20.414   5.599  0.0216 -0.0331  0.0718
    1DIPC   GL111283  22.509  20.254   5.250  0.1496  0.0194  0.1038
    1DIPC   GL211284  22.827  20.237   5.141  0.2359 -0.0136  0.1870
    1DIPC   C1A11285  22.398  19.950   5.003  0.0676 -0.0857 -0.0849
    1DIPC   D2A11286  22.292  19.682   4.631  0.2261  0.0015  0.1114
    1DIPC   D3A11287  22.501  19.713   4.203 -0.2151  0.1108  0.1150
    1DIPC   C4A11288  22.590  19.290   3.905 -0.1694  0.2279  0.1387
    1DIPC   C1B11289  22.573  20.245   4.672 -0.2742 -0.0905  0.2874
    1DIPC   D2B11290  22.220  20.112   4.377  0.0833  0.1482 -0.0383
    1DIPC   D3B11291  21.952  20.156   3.971 -0.0035  0.0164 -0.1863
    1DIPC   C4B11292  21.607  20.183   4.214 -0.0507  0.2331 -0.0971
    1DIPC   NC311293  22.194   8.276   5.669 -0.1307  0.3618  0.4473
    1DIPC   PO411294  22.591   8.376   5.624 -0.0165 -0.2254  0.2260
    1DIPC   GL111295  22.825   8.326   5.365  0.1433 -0.2027  0.2852
    1DIPC   GL211296  23.107   8.531   5.198 -0.2887  0.3657  0.0439
    1DIPC   C1A11297  23.139   8.152   4.958  0.1116  0.0760  0.0655
    1DIPC   D2A11298  23.189   8.164   4.554  0.0693 -0.0658 -0.4776
    1DIPC   D3A11299  23.009   8.660   4.720 -0.0567 -0.3410 -0.4501
    1DIPC   C4A11300  23.201   9.004   4.749 -0.2409 -0.2631  0.3540
    1DIPC   C1B11301  22.673   8.825   5.108 -0.1191  0.0334  0.1955
    1DIPC   D2B11302  22.323   8.853   4.870  0.1879 -0.1272  0.2080
    1DIPC   D3B11303  21.890   8.836   4.846 -0.1843 -0.0482  0.1061
    1DIPC   C4B11304  21.567   9.221   4.634  0.2083 -0.1302 -0.0265
    1DIPC   NC311305  22.376  24.149   6.407 -0.0535  0.2728 -0.0063
    1DIPC   PO411306  22.552  23.794   6.504 -0.1405 -0.1527  0.0174
    1DIPC   GL111307  22.441  23.711   6.124  0.3026 -0.2553  0.1702
    1DIPC   GL211308  22.177  23.570   5.998  0.0690 -0.3533  0.1221
    1DIPC   C1A11309  22.498  23.688   5.620  0.2599 -0.0939 -0.0904
    1DIPC   D2A11310  22.654  23.762   5.205 -0.1595  0.2605 -0.0722
    1DIPC   D3A11311  22.496  23.445   5.205 -0.1716  0.3542  0.0660
    1DIPC   C4A11312  22.443  23.210   5.720  0.1254 -0.0002 -0.1728
    1DIPC   C1B11313  22.038  23.499   5.533  0.0966  0.0016 -0.0876
    1DIPC   D2B11314  22.083  23.682   5.109 -0.3053  0.0168  0.0748
    1DIPC   D3B11315  21.693  23.663   5.053  0.0887  0.0523 -0.0006
    1DIPC   C4B11316  21.544  23.484   4.676  0.1674  0.0533 -0.0516
    1DIPC   NC311317  22.563  16.261   6.237  0.0291  0.1121 -0.0094
    1DIPC   PO411318  22.309  16.543   6.136  0.0507  0.1718  0.0485
    1DIPC   GL111319  22.173  16.357   5.657 -0.1429 -0.1361 -0.1962
    1DIPC   GL211320  22.230  16.626   5.463  0.2382  0.1669  0.4069
    1DIPC   C1A11321  22.378  16.106   5.310 -0.2008  0.2059  0.1885
    1DIPC   D2A11322  22.338  16.107   4.799  0.2948 -0.2901  0.2894
    1DIPC   D3A11323  22.769  16.337   4.809 -0.0147 -0.1264 -0.2755
    1DIPC   C4A11324  23.034  16.345   4.468  0.0286  0.1485  0.0631
    1DIPC   C1B11325  22.435  16.588   5.077 -0.0547  0.2358 -0.0857
    1DIPC   D2B11326  22.303  16.620   4.682  0.2988  0.0349 -0.3233
    1DIPC   D3B11327  22.213  16.748   4.265  0.1048  0.0750  0.1733
    1DIPC   C4B11328  22.480  16.949   3.930 -0.2387  0.1016  0.0036
    1DIPC   NC311329  17.263   4.390   5.646 -0.0116 -0.3827  0.1053
    1DIPC   PO411330  17.593   4.583   5.854 -0.1054 -0.0389  0.1895
    1DIPC   GL111331  17.592   4.696   5.392 -0.2083 -0.0141 -0.3678
    1DIPC   GL211332  17.389   4.492   5.110 -0.0025  0.0258 -0.1911
    1DIPC   C1A11333  17.825   4.702   5.058 -0.3344 -0.0089 -0.1007
    1DIPC   D2A11334  18.235   4.644   4.788 -0.0006  0.1780  0.2360
    1DIPC   D3A11335  18.521   5.067   4.711 -0.5409  0.0427  0.0806
    1DIPC   C4A11336  18.850   5.267   4.530 -0.0193 -0.0512 -0.0151
    1DIPC   C1B11337  17.381   4.535   4.571 -0.1613  0.1370 -0.1264
    1DIPC   D2B11338  17.554   4.220   4.261 -0.3378 -0.1443  0.1219
    1DIPC   D3B11339  17.429   3.764   4.527  0.0297 -0.0469 -0.0485
    1DIPC   C4B11340  17.663   3.389   4.563 -0.0791 -0.1051  0.0569
    1DIPC   NC311341  16.264  12.435   7.188 -0.3144  0.2060  0.1116
    1DIPC   PO411342  15.888  12.693   7.288 -0.1998  0.0192  0.1285
    1DIPC   GL111343  15.710  12.676   6.845  0.1320  0.1364 -0.0746
    1DIPC   GL211344  15.910  12.374   6.766 -0.0039 -0.1566 -0.0487
    1DIPC   C1A11345  15.402  13.009   6.773 -0.0219  0.3715 -0.0872
    1DIPC   D2A11346  15.487  13.313   6.516 -0.0638  0.0133  0.1129
    1DIPC   D3A11347  15.538  12.925   6.297  0.1487 -0.2027  0.1511
    1DIPC   C4A11348  15.290  12.564   6.598  0.1577  0.3121 -0.0895
    1DIPC   C1B11349  15.743  12.504   6.415 -0.0182  0.1274  0.1197
    1DIPC   D2B11350  15.419  12.460   6.042  0.0541 -0.2415 -0.0645
    1DIPC   D3B11351  15.388  12.905   5.762 -0.1621  0.3963  0.2981
    1DIPC   C4B11352  15.558  12.875   5.403 -0.2021 -0.1818 -0.0517
    1DIPC   NC311353   3.853  30.172   7.565 -0.1438  0.1276  0.0671
    1DIPC   PO411354   3.958   0.166   7.318  0.3788 -0.0599  0.0129
    1DIPC   GL111355   4.086   0.153   6.919  0.0714  0.0756  0.0995
    1DIPC   GL211356   3.861   0.175   6.738 -0.0279  0.1069 -0.3130
    1DIPC   C1A11357   4.298  30.272   6.729 -0.0670 -0.1011 -0.0399
    1DIPC   D2A11358   4.458  29.850   6.518 -0.0918  0.0695  0.3067
    1DIPC   D3A11359   4.235  29.830   6.163  0.1026 -0.0133 -0.3252
    1DIPC   C4A11360   3.937  29.455   6.183 -0.1740 -0.0690 -0.2041
    1DIPC   C1B11361   3.997   0.386   6.350 -0.0052  0.2504 -0.3128
    1DIPC   D2B11362   4.071   0.513   5.850 -0.0562 -0.1355 -0.1305
    1DIPC   D3B11363   4.007   0.874   5.481 -0.2184 -0.1188  0.4009
    1DIPC   C4B11364   4.189   1.376   5.335  0.0371  0.1037  0.2233
    1DIPC   NC311365  25.050  23.755   6.555  0.0712 -0.1066 -0.1525
    1DIPC   PO411366  24.781  24.133   6.320  0.0024 -0.1384  0.2238
    1DIPC   GL111367  24.586  24.000   5.925 -0.1720  0.3269 -0.0527
    1DIPC   GL211368  24.634  24.274   5.632 -0.0417  0.1352  0.0348
    1DIPC   C1A11369  24.415  23.820   5.585  0.2298 -0.2170 -0.0581
    1DIPC   D2A11370  24.429  23.655   5.203  0.0142 -0.0234 -0.0249
    1DIPC   D3A11371  24.325  23.501   4.910  0.0087 -0.2687 -0.2098
    1DIPC   C4A11372  23.826  23.415   4.790  0.2341 -0.0302 -0.2421
    1DIPC   C1B11373  24.556  24.163   5.248  0.1266  0.0870 -0.1648
    1DIPC   D2B11374  24.414  24.091   4.951 -0.0588  0.0695  0.3452
    1DIPC   D3B11375  23.972  23.916   4.857  0.0561  0.1449 -0.1663
    1DIPC   C4B11376  23.905  23.683   5.252 -0.0210 -0.0217  0.3569
    1DIPC   NC311377  20.543  20.922   6.154 -0.0439  0.0992 -0.0134
    1DIPC   PO411378  20.075  21.212   6.183 -0.1103 -0.0258 -0.3501
    1DIPC   GL111379  19.928  21.403   5.821  0.0390  0.4386 -0.0003
    1DIPC   GL211380  20.071  21.301   5.486  0.1708 -0.2190 -0.0234
    1DIPC   C1A11381  19.572  21.477   5.402  0.0148 -0.0596  0.0817
    1DIPC   D2A11382  19.731  21.427   5.005  0.1297 -0.3517  0.3335
    1DIPC   D3A11383  19.622  21.631   4.630  0.0961  0.1977 -0.2563
    1DIPC   C4A11384  20.033  21.875   4.523  0.2107  0.0156  0.2043
    1DIPC   C1B11385  20.119  21.222   5.090 -0.0566 -0.1048  0.1173
    1DIPC   D2B11386  20.133  21.425   4.650  0.0328 -0.0748 -0.0361
    1DIPC   D3B11387  20.046  21.193   4.233 -0.1748 -0.0031  0.2384
    1DIPC   C4B11388  20.171  20.771   4.162  0.3729 -0.0161 -0.0896
    1DIPC   NC311389  11.095  27.587   6.852  0.0223 -0.0488 -0.3809
    1DIPC   PO411390  10.842  27.548   6.515  0.0227  0.1974  0.1789
    1DIPC   GL111391  10.768  27.440   5.944  0.1286 -0.0254  0.0766
    1DIPC   GL211392  10.492  27.391   5.892 -0.1563  0.2536 -0.1556
    1DIPC   C1A11393  10.807  27.363   5.496 -0.0948 -0.0549 -0.1186
    1DIPC   D2A11394  10.938  27.329   5.073 -0.0104  0.1380 -0.0359
    1DIPC   D3A11395  10.561  27.460   4.799  0.0766  0.3106 -0.2797
    1DIPC   C4A11396  10.717  27.764   4.550 -0.0804 -0.1455 -0.1084
    1DIPC   C1B11397  10.427  27.640   5.583  0.0307 -0.0759  0.1557
    1DIPC   D2B11398  10.352  27.721   5.156 -0.0248  0.0920  0.1633
    1DIPC   D3B11399  10.095  27.971   5.321  0.0375  0.0697  0.1188
    1DIPC   C4B11400  10.282  28.284   5.632 -0.0290 -0.1036 -0.1259
    1DIPC   NC311401  12.289  25.240   6.810 -0.0232  0.0250 -0.0522
    1DIPC   PO411402  12.621  25.004   6.717 -0.0028  0.2586 -0.0949
    1DIPC   GL111403  12.801  25.165   6.330  0.1160 -0.0391 -0.0338
    1DIPC   GL211404  12.575  25.300   6.124 -0.1204  0.1105  0.2643
    1DIPC   C1A11405  13.101  25.186   6.012  0.0964  0.3511  0.2407
    1DIPC   D2A11406  13.188  25.488   5.675 -0.0134  0.1684  0.0146
    1DIPC   D3A11407  13.560  25.453   5.502 -0.2344  0.2667 -0.1617
    1DIPC   C4A11408  13.641  25.419   5.148  0.0692 -0.2372  0.0541
    1DIPC   C1B11409  12.744  25.195   5.689 -0.2579 -0.0439  0.2069
    1DIPC   D2B11410  13.017  25.128   5.347 -0.3566  0.0519 -0.1123
    1DIPC   D3B11411  13.367  24.914   5.056 -0.5363 -0.1295 -0.3760
    1DIPC   C4B11412  13.756  24.921   5.232  0.0796  0.0567  0.0984
    1DIPC   NC311413   8.538  24.669   6.092 -0.0940 -0.1568  0.1460
    1DIPC   PO411414   8.437  25.077   6.294  0.0745 -0.0302 -0.0131
    1DIPC   GL111415   8.256  25.439   6.029  0.0142 -0.2644  0.0334
    1DIPC   GL211416   7.863  25.500   6.033 -0.0277 -0.1287 -0.1409
    1DIPC   C1A11417   8.457  25.679   5.796 -0.1672  0.0079  0.3037
    1DIPC   D2A11418   8.972  25.750   5.742  0.0523  0.1040 -0.0217
    1DIPC   D3A11419   9.132  25.936   5.502 -0.1998 -0.1263 -0.2750
    1DIPC   C4A11420   9.606  26.018   5.413 -0.0576 -0.0616  0.0124
    1DIPC   C1B11421   7.882  25.409   5.721  0.0780  0.0228 -0.2316
    1DIPC   D2B11422   7.805  25.161   5.414 -0.2847 -0.0293 -0.0411
    1DIPC   D3B11423   8.040  24.854   5.145 -0.4548 -0.3863 -0.4186
    1DIPC   C4B11424   8.025  25.040   4.779  0.0446 -0.2682  0.1052
    1DIPC   NC311425  29.324   5.300   7.046 -0.0489  0.0677 -0.0333
    1DIPC   PO411426  29.126   5.484   6.602  0.3205 -0.0306 -0.3283
    1DIPC   GL111427  29.250   5.431   6.283 -0.4867 -0.2156  0.0699
    1DIPC   GL211428  29.469   5.629   6.092  0.0437  0.1859  0.0764
    1DIPC   C1A11429  29.354   5.077   6.079 -0.0940  0.1106  0.0447
    1DIPC   D2A11430  29.478   4.701   5.736  0.1581  0.1186 -0.1313
    1DIPC   D3A11431  29.696   5.061   5.535 -0.2241 -0.4015 -0.3635
    1DIPC   C4A11432  29.555   5.400   5.229  0.1127  0.1383  0.1926
    1DIPC   C1B11433  29.399   5.526   5.723 -0.1405 -0.0408 -0.0689
    1DIPC   D2B11434  29.234   5.715   5.391  0.1565 -0.0231 -0.0490
    1DIPC   D3B11435  28.858   5.655   5.421 -0.1276  0.0422 -0.1298
    1DIPC   C4B11436  28.684   5.546   5.032  0.1541  0.4665 -0.1901
    1DIPC   NC311437  12.710  26.069   6.660 -0.0071 -0.0871 -0.2102
    1DIPC   PO411438  13.005  26.290   6.727 -0.0936 -0.1063  0.2314
    1DIPC   GL111439  12.971  26.344   6.235 -0.3277  0.0568 -0.0279
    1DIPC   GL211440  12.783  26.118   6.106  0.3278  0.2935 -0.2816
    1DIPC   C1A11441  13.045  26.685   5.969 -0.1719 -0.0431 -0.0013
    1DIPC   D2A11442  13.388  26.874   5.802  0.0728 -0.0929 -0.1544
    1DIPC   D3A11443  13.290  26.847   5.388 -0.1186 -0.0133  0.3289
    1DIPC   C4A11444  12.881  26.754   5.344  0.5766 -0.0481 -0.0658
    1DIPC   C1B11445  13.142  26.044   5.838 -0.0502 -0.2227 -0.2568
    1DIPC   D2B11446  13.384  26.314   5.604  0.0597  0.0287 -0.0721
    1DIPC   D3B11447  13.500  26.443   5.176 -0.2905  0.1109  0.1992
    1DIPC   C4B11448  13.734  26.787   4.901  0.1029 -0.0313  0.1199
    1DIPC   NC311449  14.167  10.744   7.419 -0.1349 -0.0074 -0.2288
    1DIPC   PO411450  13.986  10.720   7.000  0.2300 -0.0500  0.0059
    1DIPC   GL111451  14.118  10.847   6.537  0.2740  0.0969 -0.1192
    1DIPC   GL211452  14.322  10.665   6.513 -0.0805  0.0223  0.1149
    1DIPC   C1A11453  13.944  11.182   6.296 -0.1261  0.1947  0.0386
    1DIPC   D2A11454  14.139  11.156   5.930  0.0019  0.0390 -0.3817
    1DIPC   D3A11455  14.326  11.283   5.542  0.0730 -0.0931 -0.1935
    1DIPC   C4A11456  14.102  11.545   5.329  0.0059  0.0278 -0.2482
    1DIPC   C1B11457  14.417  10.676   6.067  0.1800  0.1499  0.1324
    1DIPC   D2B11458  14.389  10.725   5.664  0.0541 -0.1041  0.2760
    1DIPC   D3B11459  14.224  10.474   5.288  0.0542  0.2467  0.3112
    1DIPC   C4B11460  13.808  10.659   5.101 -0.0422  0.1976 -0.3245
    1DIPC   NC311461  14.227  15.772   7.356 -0.0587 -0.0533  0.0200
    1DIPC   PO411462  14.026  15.674   6.891 -0.0040  0.2713  0.0584
    1DIPC   GL111463  13.987  15.657   6.483 -0.1459 -0.2062 -0.0784
    1DIPC   GL211464  13.928  15.221   6.382  0.0667 -0.0682  0.0851
    1DIPC   C1A11465  14.359  15.560   6.085 -0.0098  0.0276 -0.2847
    1DIPC   D2A11466  14.432  15.309   5.783 -0.2940  0.0531  0.1428
    1DIPC   D3A11467  14.042  15.464   5.560  0.0081  0.0765 -0.0515
    1DIPC   C4A11468  13.879  15.751   5.879 -0.0017 -0.0063  0.1190
    1DIPC   C1B11469  13.886  15.279   5.995  0.1397 -0.1106  0.1650
    1DIPC   D2B11470  13.512  15.379   5.659 -0.1466 -0.4305  0.0344
    1DIPC   D3B11471  13.765  14.993   5.416 -0.0936  0.0390 -0.0270
    1DIPC   C4B11472  13.769  14.900   4.981  0.0092 -0.0545  0.0470
    1DIPC   NC311473  23.139  10.535   6.232 -0.1302 -0.0864 -0.0371
    1DIPC   PO411474  22.685  10.619   6.020  0.3129  0.0780  0.2952
    1DIPC   GL111475  22.395  10.569   5.688 -0.0050 -0.1818 -0.0114
    1DIPC   GL211476  22.079  10.673   5.511  0.3026 -0.0011 -0.1800
    1DIPC   C1A11477  22.444  10.623   5.195 -0.0032  0.3563 -0.1417
    1DIPC   D2A11478  22.390  10.828   4.803 -0.0736 -0.0582  0.1565
    1DIPC   D3A11479  22.058  10.946   4.587 -0.2980 -0.0773  0.0090
    1DIPC   C4A11480  21.958  11.051   4.083 -0.2658 -0.1552  0.0646
    1DIPC   C1B11481  21.871  10.948   5.197  0.0132 -0.0102 -0.2416
    1DIPC   D2B11482  21.550  11.238   5.203 -0.1140 -0.3114  0.1490
    1DIPC   D3B11483  21.861  11.321   4.887 -0.1163  0.0998 -0.0670
    1DIPC   C4B11484  22.182  11.452   4.522 -0.0551  0.2044  0.1228
    1DIPC   NC311485  12.281  19.295   5.492  0.0784 -0.2078 -0.1373
    1DIPC   PO411486  11.964  19.042   5.591 -0.0642  0.1785  0.0996
    1DIPC   GL111487  11.679  19.111   5.292  0.1114 -0.0103  0.0869
    1DIPC   GL211488  11.409  18.993   5.341 -0.1223  0.1547 -0.1025
    1DIPC   C1A11489  11.618  19.033   4.831 -0.0135  0.1976  0.0068
    1DIPC   D2A11490  11.570  19.183   4.501  0.0982 -0.0737 -0.0935
    1DIPC   D3A11491  11.901  19.377   4.561 -0.2167 -0.0243 -0.1525
    1DIPC   C4A11492  12.178  19.183   4.233  0.2250  0.0900  0.0803
    1DIPC   C1B11493  11.140  18.943   5.017  0.0525  0.5808  0.0700
    1DIPC   D2B11494  11.073  19.139   4.571  0.0492 -0.2637  0.1692
    1DIPC   D3B11495  10.783  19.076   4.210  0.0589  0.1383 -0.2093
    1DIPC   C4B11496  10.858  18.654   4.069 -0.2888  0.1643 -0.2355
    1DIPC   NC311497  14.401  12.038   7.179  0.3235  0.0992  0.1258
    1DIPC   PO411498  14.573  11.698   6.930 -0.1734 -0.0982 -0.0616
    1DIPC   GL111499  14.372  11.920   6.587 -0.2404 -0.1698  0.2640
    1DIPC   GL211500  14.060  11.937   6.532  0.0077 -0.3677  0.1615
    1DIPC   C1A11501  14.286  12.347   6.402 -0.0566 -0.1435  0.1274
    1DIPC   D2A11502  13.876  12.573   6.409  0.0713 -0.0221 -0.0888
    1DIPC   D3A11503  13.618  12.220   6.474  0.1948  0.0797  0.1375
    1DIPC   C4A11504  13.499  11.979   6.115  0.0279  0.0171  0.2168
    1DIPC   C1B11505  14.024  12.089   6.056 -0.2473  0.0538  0.0690
    1DIPC   D2B11506  13.794  12.301   5.909 -0.1946  0.1754  0.0727
    1DIPC   D3B11507  13.718  11.880   5.624 -0.3209  0.2392 -0.0282
    1DIPC   C4B11508  13.283  11.772   5.543 -0.1761 -0.1836  0.0811
    1DIPC   NC311509  18.038  12.777   7.105  0.4127  0.3259 -0.1583
    1DIPC   PO411510  17.998  12.461   6.698 -0.0230  0.2591 -0.1245
    1DIPC   GL111511  17.857  12.564   6.229  0.0609 -0.2942 -0.3025
    1DIPC   GL211512  18.088  12.364   6.088 -0.0113  0.0776  0.1772
    1DIPC   C1A11513  17.506  12.516   5.887  0.1101 -0.2911  0.2163
    1DIPC   D2A11514  17.429  12.711   5.562 -0.0417 -0.1521  0.0936
    1DIPC   D3A11515  17.117  12.359   5.579  0.0603  0.0815  0.0210
    1DIPC   C4A11516  17.293  12.058   5.268  0.1952 -0.1218  0.0720
    1DIPC   C1B11517  17.991  12.745   5.818  0.2262 -0.2380  0.0259
    1DIPC   D2B11518  18.003  13.096   5.580 -0.0603  0.0214  0.1202
    1DIPC   D3B11519  17.684  13.375   5.563  0.0549 -0.2161  0.0449
    1DIPC   C4B11520  17.609  13.157   5.149  0.0525  0.1546 -0.1449
    1DIPC   NC311521  19.196   8.632   6.301  0.8048  0.0034  0.1478
    1DIPC   PO411522  18.891   8.906   6.107 -0.0762  0.2071 -0.1175
    1DIPC   GL111523  18.992   8.860   5.671  0.2106  0.0740  0.0765
    1DIPC   GL211524  18.944   9.091   5.557 -0.0491  0.1939  0.3718
    1DIPC   C1A11525  18.758   8.731   5.361 -0.0128 -0.0952  0.1416
    1DIPC   D2A11526  18.409   8.630   5.219  0.0385  0.1688 -0.0417
    1DIPC   D3A11527  18.564   8.796   4.911  0.1877  0.0499  0.2075
    1DIPC   C4A11528  18.896   9.120   4.927  0.0468 -0.0568  0.0153
    1DIPC   C1B11529  19.207   9.378   5.285 -0.2476  0.2319  0.0219
    1DIPC   D2B11530  19.367   9.770   5.065  0.1920  0.2040  0.1622
    1DIPC   D3B11531  18.999   9.838   4.943  0.0820 -0.5071  0.0589
    1DIPC   C4B11532  18.774   9.558   4.765  0.0703  0.0123 -0.0235
    1DIPC   NC311533  17.735   1.322   6.928  0.0762  0.2278  0.2071
    1DIPC   PO411534  17.952   1.213   6.464 -0.0774 -0.1000  0.1153
    1DIPC   GL111535  18.052   0.997   6.105 -0.4000  0.0077 -0.0867
    1DIPC   GL211536  18.066   0.628   6.001 -0.0946  0.1716 -0.1895
    1DIPC   C1A11537  18.181   1.053   5.549  0.0877 -0.1870  0.1081
    1DIPC   D2A11538  18.131   0.737   5.186 -0.1865  0.1362 -0.0494
    1DIPC   D3A11539  18.590   0.683   5.215 -0.0623  0.0170  0.3070
    1DIPC   C4A11540  18.779   0.820   5.537 -0.2534 -0.0418  0.1096
    1DIPC   C1B11541  18.285   0.475   5.603  0.1360 -0.2181 -0.1157
    1DIPC   D2B11542  18.342   0.219   5.254 -0.0747 -0.2271 -0.1904
    1DIPC   D3B11543  17.957   0.201   5.202 -0.0062  0.0118  0.0166
    1DIPC   C4B11544  17.510   0.160   5.373 -0.0772 -0.0796 -0.0849
    1DIPC   NC311545   0.710   7.802   6.763 -0.1648  0.0914 -0.0211
    1DIPC   PO411546   0.740   7.415   6.518  0.0848  0.0678 -0.1484
    1DIPC   GL111547   0.905   7.634   6.267  0.0159  0.0261  0.0862
    1DIPC   GL211548   1.049   7.852   6.402 -0.1461 -0.4312  0.2798
    1DIPC   C1A11549   1.028   7.892   5.880  0.2747 -0.1565 -0.4865
    1DIPC   D2A11550   1.056   8.074   5.402 -0.0409  0.0105  0.0759
    1DIPC   D3A11551   1.444   8.072   5.163  0.0894 -0.0187 -0.1226
    1DIPC   C4A11552   1.152   8.024   4.791 -0.3209 -0.2754 -0.1909
    1DIPC   C1B11553   1.456   7.919   6.199  0.2163 -0.0282 -0.0310
    1DIPC   D2B11554   1.854   7.930   5.965 -0.1091 -0.2082 -0.1874
    1DIPC   D3B11555   1.997   8.287   5.648 -0.1146  0.1615 -0.0393
    1DIPC   C4B11556   2.032   8.738   5.932  0.0478  0.2108 -0.2034
    1DIPC   NC311557  13.461  11.957   7.410  0.2068 -0.3221 -0.0372
    1DIPC   PO411558  13.535  12.470   7.350  0.1616 -0.2275  0.1675
    1DIPC   GL111559  13.287  12.642   6.978 -0.1951 -0.0232 -0.1835
    1DIPC   GL211560  13.350  12.951   6.869  0.1906  0.1757  0.1883
    1DIPC   C1A11561  13.200  12.502   6.521  0.0664 -0.1134  0.1785
    1DIPC   D2A11562  13.459  12.560   6.141  0.0954 -0.1155  0.0203
    1DIPC   D3A11563  13.194  12.759   6.035  0.0073 -0.1108  0.0394
    1DIPC   C4A11564  13.399  13.093   5.725 -0.0525  0.0808  0.1309
    1DIPC   C1B11565  13.523  12.961   6.482  0.0180 -0.0214 -0.0550
    1DIPC   D2B11566  13.778  12.915   6.066  0.0699 -0.0763  0.1174
    1DIPC   D3B11567  13.777  12.808   5.647  0.0900  0.3267 -0.0580
    1DIPC   C4B11568  13.537  12.850   5.257  0.0599 -0.0375 -0.0453
    1DIPC   NC311569   8.362  22.527   6.442 -0.1162 -0.1414  0.0430
    1DIPC   PO411570   8.533  22.478   6.126 -0.0305  0.1432  0.0284
    1DIPC   GL111571   8.494  22.717   5.775  0.0831  0.4170  0.0931
    1DIPC   GL211572   8.379  22.457   5.643  0.1661  0.0029 -0.0139
    1DIPC   C1A11573   8.430  22.904   5.444  0.1772  0.1191  0.0734
    1DIPC   D2A11574   8.337  23.291   5.221  0.1889 -0.1012 -0.0772
    1DIPC   D3A11575   8.467  23.264   4.749 -0.0938  0.1090 -0.1626
    1DIPC   C4A11576   8.300  23.315   4.311 -0.0296 -0.0428  0.4364
    1DIPC   C1B11577   8.031  22.495   5.308 -0.0733 -0.0313 -0.0055
    1DIPC   D2B11578   7.851  22.538   4.874  0.1926 -0.0617  0.0567
    1DIPC   D3B11579   8.248  22.355   4.820  0.0535 -0.2446 -0.1024
    1DIPC   C4B11580   8.512  22.346   4.355  0.0920  0.3290  0.1415
    1DIPC   NC311581  16.407  21.524   6.492  0.1196  0.2026  0.0404
    1DIPC   PO411582  16.468  21.120   6.337  0.1593 -0.1260  0.1740
    1DIPC   GL111583  16.640  20.949   5.951 -0.3497  0.0628  0.2328
    1DIPC   GL211584  16.865  20.716   5.899  0.1839 -0.2633  0.3017
    1DIPC   C1A11585  16.841  21.108   5.538 -0.1014 -0.2323 -0.0608
    1DIPC   D2A11586  17.075  21.212   5.202  0.0307 -0.1837 -0.0208
    1DIPC   D3A11587  16.909  21.406   4.910  0.1989  0.2749 -0.2551
    1DIPC   C4A11588  16.575  21.222   4.682  0.0616 -0.2572  0.1397
    1DIPC   C1B11589  16.724  20.601   5.526  0.1161 -0.0733 -0.0241
    1DIPC   D2B11590  16.969  20.526   5.190  0.2246  0.0022 -0.1009
    1DIPC   D3B11591  16.769  20.610   4.726 -0.0542  0.0215 -0.0060
    1DIPC   C4B11592  16.485  20.273   4.615  0.0986  0.2962  0.0510
    1DIPC   NC311593  15.057   8.935   7.000  0.1880  0.0609  0.0694
    1DIPC   PO411594  14.901   9.064   6.547 -0.0330 -0.0743  0.0106
    1DIPC   GL111595  14.834   8.940   6.129  0.0474 -0.2530 -0.0730
    1DIPC   GL211596  14.843   8.581   6.107 -0.5101 -0.1784 -0.0793
    1DIPC   C1A11597  14.928   9.093   5.735 -0.0129 -0.0372 -0.0295
    1DIPC   D2A11598  14.899   9.315   5.271  0.0580  0.4023  0.2748
    1DIPC   D3A11599  14.833   9.122   4.900  0.3167 -0.0733 -0.3090
    1DIPC   C4A11600  14.395   9.065   4.777 -0.0495  0.2518 -0.1697
    1DIPC   C1B11601  14.819   8.277   5.806 -0.0853  0.1697  0.1534
    1DIPC   D2B11602  15.126   8.118   5.516 -0.3534  0.4547  0.0174
    1DIPC   D3B11603  14.819   8.139   5.295  0.2774  0.2753 -0.1627
    1DIPC   C4B11604  14.948   7.967   4.902 -0.1469  0.1521  0.0970
    1DIPC   NC311605  29.546  27.457   7.037  0.1277 -0.1883  0.0885
    1DIPC   PO411606  29.856  27.808   7.058  0.3712  0.1595 -0.0965
    1DIPC   GL111607  29.924  27.650   6.608 -0.1260  0.2542  0.3832
    1DIPC   GL211608  29.710  27.352   6.561 -0.0863 -0.1744 -0.0090
    1DIPC   C1A11609  29.893  27.625   6.188 -0.0485  0.1609  0.0754
    1DIPC   D2A11610  30.238  27.513   6.085 -0.1265  0.0330  0.2607
    1DIPC   D3A11611  30.045  27.686   5.727 -0.0578 -0.1303 -0.0987
    1DIPC   C4A11612  30.205  27.998   5.445  0.0820 -0.1098 -0.1677
    1DIPC   C1B11613  29.434  27.548   6.268  0.1072 -0.2674  0.3326
    1DIPC   D2B11614  29.119  27.341   6.006 -0.2206  0.1065 -0.1070
    1DIPC   D3B11615  29.281  27.529   5.599  0.3271  0.5111  0.0117
    1DIPC   C4B11616  29.097  27.811   5.273 -0.0135 -0.0366  0.1388
    1DIPC   NC311617   9.611  23.301   6.018 -0.2988 -0.0406 -0.0533
    1DIPC   PO411618  10.036  23.483   5.960  0.0884  0.0229 -0.0809
    1DIPC   GL111619   9.811  23.534   5.608  0.2155  0.0151 -0.0819
    1DIPC   GL211620   9.785  23.255   5.482 -0.1330 -0.4548 -0.0289
    1DIPC   C1A11621   9.747  23.685   5.179 -0.2769 -0.2846  0.1750
    1DIPC   D2A11622   9.675  23.861   4.671 -0.0757  0.0339 -0.1046
    1DIPC   D3A11623   9.906  24.132   4.511  0.0848  0.1286  0.0532
    1DIPC   C4A11624   9.894  24.510   4.566 -0.3141 -0.3799 -0.3410
    1DIPC   C1B11625   9.785  23.205   5.024  0.0351  0.2270 -0.0707
    1DIPC   D2B11626   9.702  23.062   4.550  0.0567  0.0323 -0.1157
    1DIPC   D3B11627   9.691  23.426   4.470 -0.2409  0.1146 -0.0029
    1DIPC   C4B11628  10.149  23.615   4.395  0.0009  0.0700  0.5469
    1DIPC   NC311629  30.146  28.300   7.142 -0.2240 -0.0517  0.0017
    1DIPC   PO411630  30.007  28.673   6.935 -0.0361 -0.2103 -0.0995
    1DIPC   GL111631  29.783  28.747   6.585 -0.0181 -0.0070  0.0667
    1DIPC   GL211632  29.496  28.427   6.548 -0.2093 -0.0269 -0.2615
    1DIPC   C1A11633  29.720  28.769   6.152 -0.1560  0.1447 -0.0952
    1DIPC   D2A11634  29.589  28.596   5.755  0.0152 -0.0100 -0.0076
    1DIPC   D3A11635  29.485  28.919   5.407  0.1435 -0.3629  0.0431
    1DIPC   C4A11636  29.858  29.126   5.274 -0.1629 -0.0256 -0.1522
    1DIPC   C1B11637  29.677  28.133   6.254  0.1687  0.2705 -0.1308
    1DIPC   D2B11638  29.484  27.895   5.857 -0.2638  0.1765  0.0164
    1DIPC   D3B11639  29.137  28.105   5.662 -0.2712 -0.1583 -0.0999
    1DIPC   C4B11640  29.092  28.281   5.212 -0.2756 -0.1100 -0.2276
    1DIPC   NC311641  10.683   7.131   6.726 -0.0004 -0.2164 -0.2711
    1DIPC   PO411642  10.977   7.549   6.547  0.2229 -0.1961  0.3226
    1DIPC   GL111643  11.069   7.608   6.114 -0.0739 -0.1691  0.4942
    1DIPC   GL211644  11.358   7.819   5.944 -0.0835 -0.3309  0.1658
    1DIPC   C1A11645  11.008   7.596   5.646 -0.1364 -0.0840 -0.0984
    1DIPC   D2A11646  10.496   7.758   5.418 -0.0757  0.2004  0.2177
    1DIPC   D3A11647  10.329   7.781   5.002  0.0390  0.0920  0.1172
    1DIPC   C4A11648   9.916   7.532   5.023  0.1628 -0.1274 -0.2994
    1DIPC   C1B11649  10.963   8.030   5.794  0.1652 -0.0927 -0.0648
    1DIPC   D2B11650  10.910   7.997   5.356 -0.0291 -0.0539 -0.1201
    1DIPC   D3B11651  10.963   8.295   5.046 -0.0058 -0.1394 -0.0155
    1DIPC   C4B11652  11.120   8.236   4.584 -0.0155  0.2703 -0.2750
    1DIPC   NC311653  14.644  19.773   6.014 -0.1045  0.0145  0.0946
    1DIPC   PO411654  14.198  19.810   5.770  0.0020 -0.1792 -0.0184
    1DIPC   GL111655  14.074  19.688   5.256  0.1045  0.0588  0.1211
    1DIPC   GL211656  13.692  19.757   5.096  0.3669 -0.2042 -0.3128
    1DIPC   C1A11657  14.191  19.672   4.883 -0.2514 -0.1448 -0.0445
    1DIPC   D2A11658  14.303  19.937   4.591  0.1534 -0.4360 -0.0487
    1DIPC   D3A11659  14.547  19.879   4.275 -0.1146  0.1318  0.3484
    1DIPC   C4A11660  14.662  20.136   3.938 -0.1510  0.0480  0.0663
    1DIPC   C1B11661  13.603  20.132   4.857  0.1080  0.1557  0.4762
    1DIPC   D2B11662  13.813  20.397   4.399  0.0487 -0.3051 -0.1122
    1DIPC   D3B11663  14.146  20.151   4.032 -0.1354 -0.0414  0.1966
    1DIPC   C4B11664  14.098  19.706   4.101 -0.0658  0.1908  0.0719
    1DIPC   NC311665  15.584  29.495   6.275  0.1804 -0.0886  0.0900
    1DIPC   PO411666  15.554  29.749   6.598 -0.1540  0.0505 -0.2337
    1DIPC   GL111667  15.514  29.944   6.119 -0.1170 -0.0670 -0.2221
    1DIPC   GL211668  15.775  30.107   6.031  0.1535 -0.1280  0.0311
    1DIPC   C1A11669  15.242  30.236   5.858 -0.0795  0.1132 -0.2291
    1DIPC   D2A11670  15.223   0.008   5.496  0.2324 -0.0493 -0.2777
    1DIPC   D3A11671  15.023   0.198   5.169 -0.0874  0.2270  0.0533
    1DIPC   C4A11672  14.606   0.057   4.983 -0.2011  0.3501 -0.0078
    1DIPC   C1B11673  15.979  30.097   5.539 -0.0632  0.4208 -0.1910
    1DIPC   D2B11674  16.263  29.989   5.321 -0.0202  0.2683 -0.2386
    1DIPC   D3B11675  16.502  29.646   5.441  0.0575  0.1136 -0.4293
    1DIPC   C4B11676  16.550  29.520   5.857  0.0277  0.1054  0.2529
    1DIPC   NC311677   3.198   4.194   7.133  0.2441  0.0974  0.1304
    1DIPC   PO411678   3.720   4.141   7.045 -0.1982  0.1201 -0.0531
    1DIPC   GL111679   3.971   4.421   6.694  0.0038  0.0322  0.1313
    1DIPC   GL211680   3.752   4.670   6.608  0.3464 -0.0501 -0.0247
    1DIPC   C1A11681   4.264   4.338   6.404 -0.1180  0.3592 -0.1420
    1DIPC   D2A11682   4.224   4.247   5.912 -0.1128  0.0219 -0.1116
    1DIPC   D3A11683   4.661   4.282   6.133 -0.0264  0.0342  0.1567
    1DIPC   C4A11684   4.662   4.742   6.258  0.2838 -0.0578 -0.2477
    1DIPC   C1B11685   3.935   4.832   6.291 -0.3028 -0.1975  0.2118
    1DIPC   D2B11686   4.210   4.714   6.061  0.1090  0.1098  0.0844
    1DIPC   D3B11687   4.033   4.945   5.732 -0.0126 -0.3970 -0.3088
    1DIPC   C4B11688   4.079   4.753   5.429 -0.1841 -0.1538 -0.0701
    1DIPC   NC311689   6.397   4.871   7.308 -0.0476 -0.1878 -0.0810
    1DIPC   PO411690   6.274   5.215   7.102  0.0468 -0.2282 -0.0863
    1DIPC   GL111691   6.172   5.342   6.694 -0.2471 -0.2102  0.0820
    1DIPC   GL211692   6.372   5.653   6.525 -0.0658 -0.1270 -0.1029
    1DIPC   C1A11693   6.099   5.363   6.267  0.1346  0.0971  0.0510
    1DIPC   D2A11694   5.747   5.207   5.957 -0.2815 -0.0784  0.3206
    1DIPC   D3A11695   5.478   5.286   6.349 -0.0294  0.4277  0.1804
    1DIPC   C4A11696   5.233   4.915   6.222 -0.1830  0.3816  0.1815
    1DIPC   C1B11697   6.614   5.573   6.161  0.0123 -0.1931  0.0550
    1DIPC   D2B11698   7.027   5.356   6.162 -0.1933  0.0898 -0.1932
    1DIPC   D3B11699   7.106   5.252   5.682 -0.2254 -0.3207 -0.0583
    1DIPC   C4B11700   7.565   5.170   5.660 -0.1607 -0.1695  0.0933
    1DIPC   NC311701   0.560  30.175   7.189  0.1086 -0.2827 -0.0146
    1DIPC   PO411702   0.843  29.812   7.122  0.0627  0.0363  0.0703
    1DIPC   GL111703   0.722  29.937   6.741 -0.0637  0.1178 -0.1308
    1DIPC   GL211704   0.855  29.595   6.670 -0.0806 -0.2407  0.3574
    1DIPC   C1A11705   0.913  29.999   6.373 -0.0211 -0.2406  0.0836
    1DIPC   D2A11706   1.064   0.038   6.083  0.1203 -0.0664  0.2470
    1DIPC   D3A11707   1.039  30.293   5.618  0.3033 -0.0114  0.1723
    1DIPC   C4A11708   1.468  30.338   5.371  0.0153  0.2205 -0.0926
    1DIPC   C1B11709   0.946  29.237   6.465 -0.2294 -0.0003 -0.1812
    1DIPC   D2B11710   0.847  28.798   6.373 -0.1205 -0.0125  0.4754
    1DIPC   D3B11711   1.215  28.967   6.162  0.0409  0.1148  0.0407
    1DIPC   C4B11712   1.536  29.023   6.367  0.1218 -0.1235  0.1287
    1DIPC   NC311713  21.062  29.276   7.060  0.0721  0.1184 -0.0131
    1DIPC   PO411714  21.325  29.015   6.692  0.1585 -0.2611  0.1219
    1DIPC   GL111715  21.192  29.284   6.352 -0.0295 -0.1170  0.1384
    1DIPC   GL211716  21.471  29.456   6.202 -0.0690  0.0506  0.1234
    1DIPC   C1A11717  21.188  29.155   5.921  0.2986  0.0676 -0.2653
    1DIPC   D2A11718  21.379  29.019   5.547 -0.4923 -0.2952  0.3176
    1DIPC   D3A11719  21.077  28.692   5.442 -0.2231  0.0726  0.0141
    1DIPC   C4A11720  21.176  28.626   5.049 -0.0304  0.4176  0.2782
    1DIPC   C1B11721  21.474  29.540   5.768 -0.3843 -0.1787 -0.0683
    1DIPC   D2B11722  21.133  29.508   5.497  0.0365 -0.0472  0.2612
    1DIPC   D3B11723  20.950  29.638   5.154  0.0563 -0.2189  0.3032
    1DIPC   C4B11724  20.977  30.021   5.169 -0.2317  0.0125  0.0618
    1DIPC   NC311725  25.194  16.232   6.079  0.1994  0.2677  0.1275
    1DIPC   PO411726  24.820  16.158   6.220 -0.1757  0.1290 -0.1924
    1DIPC   GL111727  24.790  16.004   5.822  0.1441  0.0898  0.2671
    1DIPC   GL211728  24.913  16.244   5.561 -0.0979 -0.0391 -0.1376
    1DIPC   C1A11729  24.699  15.783   5.523 -0.3814  0.2366 -0.2833
    1DIPC   D2A11730  24.557  15.336   5.429  0.0151 -0.1134  0.1284
    1DIPC   D3A11731  24.698  15.216   5.012 -0.0580 -0.1030 -0.0060
    1DIPC   C4A11732  24.736  14.808   4.736 -0.4575  0.1165  0.0425
    1DIPC   C1B11733  24.820  16.627   5.365  0.1108  0.0979 -0.4092
    1DIPC   D2B11734  24.648  17.110   5.369  0.0735  0.0346  0.0296
    1DIPC   D3B11735  24.835  17.581   5.261  0.0019  0.1601  0.2999
    1DIPC   C4B11736  25.010  17.626   4.858  0.2667  0.5089 -0.3392
    1DIPC   NC311737  15.471  25.503   6.562 -0.0214  0.1066  0.0452
    1DIPC   PO411738  15.756  25.825   6.275  0.0144 -0.1335 -0.0984
    1DIPC   GL111739  15.509  25.769   5.850  0.4547 -0.2110 -0.0884
    1DIPC   GL211740  15.356  25.555   6.053  0.0641  0.0472  0.0390
    1DIPC   C1A11741  15.378  25.833   5.452  0.0867 -0.0414 -0.1066
    1DIPC   D2A11742  15.443  25.920   4.937  0.3886  0.0542 -0.0866
    1DIPC   D3A11743  15.858  26.123   4.920  0.0121 -0.1438  0.0302
    1DIPC   C4A11744  16.145  26.084   4.661 -0.2322 -0.2586 -0.1023
    1DIPC   C1B11745  14.959  25.475   5.692 -0.1086  0.0162 -0.0931
    1DIPC   D2B11746  14.962  25.583   5.218  0.3841  0.1243 -0.1945
    1DIPC   D3B11747  15.234  25.233   5.233 -0.0708  0.1001 -0.2363
    1DIPC   C4B11748  15.559  25.378   4.932 -0.0940  0.0578  0.4905
    1DIPC   NC311749  10.656   4.530   6.250 -0.0666  0.1200 -0.0511
    1DIPC   PO411750  10.150   4.674   6.360  0.3778 -0.2282  0.2858
    1DIPC   GL111751  10.068   4.862   6.007  0.0222 -0.1453 -0.3027
    1DIPC   GL211752  10.160   5.136   5.826 -0.0284  0.1870  0.1002
    1DIPC   C1A11753   9.689   5.050   5.882  0.1027  0.0512 -0.0210
    1DIPC   D2A11754   9.423   5.321   5.538 -0.2606 -0.2399 -0.0704
    1DIPC   D3A11755   8.975   5.164   5.338 -0.0057  0.1436 -0.3481
    1DIPC   C4A11756   8.735   5.300   5.014  0.1127 -0.1730 -0.0514
    1DIPC   C1B11757   9.901   5.095   5.412  0.2025  0.0939  0.0494
    1DIPC   D2B11758   9.529   4.975   5.035 -0.2814  0.1783  0.1496
    1DIPC   D3B11759   9.292   5.293   5.003  0.5683  0.1004 -0.1607
    1DIPC   C4B11760   9.093   5.656   5.117 -0.2994  0.2062 -0.0893
    1DIPC   NC311761  18.325  21.550   6.160 -0.1781  0.0546  0.0033
    1DIPC   PO411762  18.498  21.212   6.201 -0.4969  0.2033  0.3364
    1DIPC   GL111763  18.272  21.454   5.723  0.2650  0.0233 -0.0118
    1DIPC   GL211764  18.255  21.853   5.584 -0.0989  0.0295 -0.2019
    1DIPC   C1A11765  18.355  21.237   5.265 -0.1327  0.1017 -0.1351
    1DIPC   D2A11766  18.399  21.016   4.847  0.2355  0.0081  0.1877
    1DIPC   D3A11767  18.049  21.165   4.519  0.0361 -0.1942 -0.0449
    1DIPC   C4A11768  18.067  21.468   4.366 -0.2668 -0.0605 -0.0175
    1DIPC   C1B11769  18.276  22.223   5.235  0.1978 -0.2761  0.0908
    1DIPC   D2B11770  18.260  22.228   4.779 -0.1965  0.2123 -0.2592
    1DIPC   D3B11771  18.221  22.689   4.736  0.1135  0.0071 -0.1032
    1DIPC   C4B11772  17.947  22.850   4.506 -0.3823 -0.2355  0.0472
    1DIPC   NC311773  10.474  20.543   5.969 -0.4019 -0.0491 -0.1606
    1DIPC   PO411774  10.798  20.229   5.773 -0.0599 -0.0146 -0.1714
    1DIPC   GL111775  10.753  20.215   5.323  0.0644  0.0471 -0.2223
    1DIPC   GL211776  10.688  19.935   5.179 -0.0830 -0.3450 -0.1749
    1DIPC   C1A11777  10.973  20.520   4.994  0.0570 -0.0919 -0.0565
    1DIPC   D2A11778  11.000  20.475   4.536 -0.1197 -0.1040 -0.0064
    1DIPC   D3A11779  10.815  20.785   4.135  0.1113  0.2040 -0.1997
    1DIPC   C4A11780  10.556  21.170   4.264 -0.3725  0.0828  0.1001
    1DIPC   C1B11781  10.477  19.816   4.803 -0.0345 -0.2348 -0.0121
    1DIPC   D2B11782  10.208  20.087   4.468  0.1391 -0.1333 -0.1800
    1DIPC   D3B11783   9.699  19.970   4.383 -0.0650  0.4250 -0.0442
    1DIPC   C4B11784   9.615  19.637   4.685 -0.0944 -0.0468 -0.3697
    1DIPC   NC311785  17.057  23.192   6.348  0.1658  0.0294  0.0174
    1DIPC   PO411786  17.130  22.724   6.162  0.1231  0.3338 -0.2054
    1DIPC   GL111787  16.840  22.758   5.771 -0.2293  0.2089  0.2829
    1DIPC   GL211788  16.753  23.101   5.593 -0.0692  0.1071  0.0599
    1DIPC   C1A11789  16.645  22.540   5.533  0.0104 -0.0097  0.0555
    1DIPC   D2A11790  16.331  22.472   5.300 -0.1291  0.0793  0.1836
    1DIPC   D3A11791  16.567  22.083   5.217 -0.0485  0.1004 -0.3365
    1DIPC   C4A11792  16.875  21.866   5.160 -0.1263  0.1228 -0.0585
    1DIPC   C1B11793  17.191  23.140   5.403  0.0467  0.0227 -0.5163
    1DIPC   D2B11794  17.627  22.971   5.450 -0.3028  0.0454  0.1077
    1DIPC   D3B11795  17.808  22.829   5.014 -0.1286 -0.0946 -0.0876
    1DIPC   C4B11796  17.878  22.449   4.965  0.2386  0.0247  0.0420
    1DIPC   NC311797  11.535  10.802   6.781 -0.0084 -0.2551  0.1774
    1DIPC   PO411798  11.465  10.360   7.056  0.0750 -0.1543 -0.0364
    1DIPC   GL111799  11.606  10.087   6.672 -0.0005  0.0958  0.5181
    1DIPC   GL211800  11.603  10.302   6.435 -0.2369 -0.1068 -0.0133
    1DIPC   C1A11801  11.729   9.780   6.350 -0.2021  0.0508 -0.0617
    1DIPC   D2A11802  11.879   9.661   5.923 -0.3311 -0.0135 -0.0983
    1DIPC   D3A11803  11.670   9.475   5.474  0.0797 -0.0569  0.2887
    1DIPC   C4A11804  11.693   9.587   5.026  0.0530 -0.1165  0.1284
    1DIPC   C1B11805  11.375  10.451   6.032  0.1440  0.0261 -0.0899
    1DIPC   D2B11806  11.415  10.317   5.652  0.2135  0.1538 -0.1761
    1DIPC   D3B11807  11.477  10.302   5.238 -0.3461  0.1195 -0.0655
    1DIPC   C4B11808  11.053  10.125   5.031  0.2645 -0.1651 -0.0821
    1DIPC   NC311809   5.661  25.926   6.602 -0.1137 -0.2214  0.0146
    1DIPC   PO411810   6.014  26.000   6.646  0.1495 -0.0123  0.1858
    1DIPC   GL111811   5.992  26.206   6.250 -0.0353  0.1948  0.1355
    1DIPC   GL211812   5.708  26.384   6.307 -0.1233 -0.2387 -0.1485
    1DIPC   C1A11813   6.003  26.472   5.863  0.0165 -0.0592 -0.0051
    1DIPC   D2A11814   6.034  26.794   5.593  0.1670  0.1432 -0.3224
    1DIPC   D3A11815   5.633  26.707   5.517  0.1175  0.1997 -0.0234
    1DIPC   C4A11816   5.238  26.723   5.837 -0.3743 -0.1718  0.0962
    1DIPC   C1B11817   5.515  26.303   5.942 -0.1908 -0.3704 -0.4238
    1DIPC   D2B11818   5.393  26.023   5.631  0.2388 -0.1492  0.1442
    1DIPC   D3B11819   5.616  25.841   5.316 -0.0460 -0.2568 -0.1443
    1DIPC   C4B11820   5.414  25.916   4.931  0.1174  0.0995  0.3390
    1DIPC   NC311821   8.772  29.806   7.287 -0.0505  0.2316 -0.2856
    1DIPC   PO411822   8.465  30.029   7.023  0.1817  0.0361  0.2643
    1DIPC   GL111823   8.637  30.224   6.588 -0.0191  0.0540 -0.1640
    1DIPC   GL211824   8.913  30.076   6.523  0.0967  0.1212  0.2243
    1DIPC   C1A11825   8.589  30.231   6.177  0.0067  0.0265 -0.0091
    1DIPC   D2A11826   8.777  30.235   5.750 -0.2540 -0.2541  0.6371
    1DIPC   D3A11827   8.568  30.054   5.372  0.0685 -0.3884 -0.0623
    1DIPC   C4A11828   8.401  29.705   5.302  0.0709  0.1734 -0.0811
    1DIPC   C1B11829   8.976  29.936   6.080  0.0193 -0.1222 -0.0004
    1DIPC   D2B11830   8.783  29.722   5.691  0.3676  0.0482 -0.2099
    1DIPC   D3B11831   8.707  29.252   5.868 -0.2218  0.3102  0.0305
    1DIPC   C4B11832   8.519  28.874   5.840 -0.0727  0.0719  0.1903
    1DIPC   NC311833  22.148  18.744   5.633  0.0084  0.0273 -0.1284
    1DIPC   PO411834  22.155  18.522   5.145  0.1805  0.1558  0.0016
    1DIPC   GL111835  22.355  18.888   5.036  0.0214  0.0290  0.2694
    1DIPC   GL211836  22.115  19.100   5.223  0.3095 -0.2508 -0.3739
    1DIPC   C1A11837  22.474  19.178   4.755  0.0361 -0.0876  0.0690
    1DIPC   D2A11838  22.660  19.191   4.425  0.3151 -0.0187  0.1611
    1DIPC   D3A11839  22.961  18.906   4.172 -0.2874  0.1888  0.2642
    1DIPC   C4A11840  22.651  18.603   3.936  0.0548  0.3366 -0.1174
    1DIPC   C1B11841  22.343  19.483   5.154  0.2281 -0.1376  0.1093
    1DIPC   D2B11842  22.756  19.572   5.059 -0.2101  0.0094  0.3248
    1DIPC   D3B11843  22.850  19.259   5.229 -0.0406 -0.4323  0.0807
    1DIPC   C4B11844  22.814  18.841   5.100 -0.3061 -0.1397  0.0579
    1DIPC   NC311845  11.815   6.078   5.972 -0.1779  0.1382 -0.1274
    1DIPC   PO411846  11.965   5.772   6.145  0.2103  0.0829 -0.0374
    1DIPC   GL111847  11.959   5.649   5.680  0.2391  0.2820 -0.0187
    1DIPC   GL211848  11.827   5.263   5.648  0.0589 -0.3382 -0.2355
    1DIPC   C1A11849  11.681   5.649   5.321 -0.1650 -0.0052  0.0870
    1DIPC   D2A11850  11.385   5.777   5.070  0.0751  0.0030 -0.0980
    1DIPC   D3A11851  11.680   5.984   4.929 -0.2541  0.1837 -0.1260
    1DIPC   C4A11852  11.639   6.077   4.448  0.1760  0.1577 -0.3467
    1DIPC   C1B11853  11.572   5.098   5.338  0.0107  0.0092  0.0048
    1DIPC   D2B11854  11.257   5.222   5.038  0.0578 -0.1392 -0.1628
    1DIPC   D3B11855  11.585   5.179   4.603  0.2379  0.1684 -0.0087
    1DIPC   C4B11856  11.610   5.521   4.226 -0.0585 -0.0934 -0.1290
    1DIPC   NC311857  28.804  24.488   6.815  0.2603 -0.4295  0.0603
    1DIPC   PO411858  29.347  24.481   6.601 -0.2099  0.0631 -0.4018
    1DIPC   GL111859  29.589  24.450   6.267  0.0674  0.0227  0.0010
    1DIPC   GL211860  29.377  24.555   6.048  0.2912  0.1893 -0.1032
    1DIPC   C1A11861  29.935  24.516   6.044 -0.4382 -0.1244 -0.2914
    1DIPC   D2A11862  30.118  24.804   5.754 -0.2362  0.2389  0.0529
    1DIPC   D3A11863  30.135  24.604   5.310  0.1461 -0.0569 -0.3084
    1DIPC   C4A11864  30.216  24.908   4.950 -0.2698 -0.1797  0.1146
    1DIPC   C1B11865  29.635  24.670   5.732  0.0467  0.0035  0.0378
    1DIPC   D2B11866  29.647  24.758   5.304 -0.1770  0.0732 -0.0991
    1DIPC   D3B11867  29.664  25.081   5.189  0.0505 -0.2079 -0.0108
    1DIPC   C4B11868  29.390  25.264   5.092  0.3038 -0.0438  0.0746
    1DIPC   NC311869   5.156   1.582   7.358 -0.1332 -0.1575  0.1437
    1DIPC   PO411870   5.334   1.928   7.157 -0.1839 -0.1003  0.0324
    1DIPC   GL111871   5.149   1.596   6.834 -0.0533 -0.3447 -0.1329
    1DIPC   GL211872   5.450   1.617   6.613 -0.0401  0.0834  0.0873
    1DIPC   C1A11873   4.938   1.765   6.535 -0.0497 -0.1002 -0.1996
    1DIPC   D2A11874   4.534   1.679   6.353  0.0039 -0.5680 -0.3387
    1DIPC   D3A11875   4.574   1.371   6.098  0.0775  0.0084  0.1134
    1DIPC   C4A11876   4.371   1.384   5.828 -0.0339  0.2850  0.0585
    1DIPC   C1B11877   5.559   1.735   6.252 -0.1686  0.0346  0.0905
    1DIPC   D2B11878   5.403   1.580   5.789 -0.4384  0.0667 -0.0427
    1DIPC   D3B11879   4.949   1.700   5.707 -0.0106  0.0771 -0.2064
    1DIPC   C4B11880   4.843   1.984   5.457 -0.1687  0.0527 -0.4184
    1DIPC   NC311881  25.978  14.793   6.298  0.1417 -0.1771 -0.0489
    1DIPC   PO411882  25.592  14.847   6.141 -0.1639 -0.0228  0.1521
    1DIPC   GL111883  25.366  14.701   5.796  0.2328  0.1608  0.1459
    1DIPC   GL211884  25.378  14.980   5.608  0.0506 -0.0522 -0.0341
    1DIPC   C1A11885  25.211  14.447   5.514  0.3114  0.1187  0.1446
    1DIPC   D2A11886  25.388  14.375   5.087  0.0338 -0.0051 -0.0182
    1DIPC   D3A11887  24.893  14.406   5.004 -0.0085  0.0349  0.0444
    1DIPC   C4A11888  24.905  14.448   4.490 -0.1639  0.1742 -0.1499
    1DIPC   C1B11889  25.351  14.820   5.145  0.0738  0.1884 -0.0653
    1DIPC   D2B11890  25.250  14.748   4.704 -0.0268  0.1307  0.1158
    1DIPC   D3B11891  25.367  15.255   4.810  0.0431 -0.0823  0.1001
    1DIPC   C4B11892  25.204  15.550   4.467 -0.0318 -0.0461  0.0594
    1DIPC   NC311893  24.373  27.703   6.822  0.1759 -0.1665 -0.2995
    1DIPC   PO411894  24.621  27.399   6.767 -0.0528 -0.1101  0.2057
    1DIPC   GL111895  24.537  27.655   6.347  0.0963  0.3276 -0.0552
    1DIPC   GL211896  24.785  27.964   6.353 -0.0419 -0.0186 -0.2159
    1DIPC   C1A11897  24.360  27.938   6.107 -0.1412  0.2503  0.0827
    1DIPC   D2A11898  23.980  28.057   5.936  0.1832  0.2851 -0.2447
    1DIPC   D3A11899  23.840  28.448   5.661 -0.0593  0.1009  0.0503
    1DIPC   C4A11900  24.128  28.526   5.294 -0.1748  0.0061 -0.1063
    1DIPC   C1B11901  24.806  28.305   6.081  0.0554  0.0455  0.0063
    1DIPC   D2B11902  24.842  28.465   5.717 -0.3241  0.4939 -0.4160
    1DIPC   D3B11903  25.119  28.799   5.779  0.0251 -0.1009 -0.0624
    1DIPC   C4B11904  24.883  29.090   5.608 -0.0661 -0.0679 -0.1007
    1DIPC   NC311905  21.235   7.579   6.598 -0.0454 -0.1082 -0.1582
    1DIPC   PO411906  21.244   7.817   6.222 -0.1633  0.0965  0.1111
    1DIPC   GL111907  21.264   7.779   5.870 -0.2336 -0.0723 -0.2571
    1DIPC   GL211908  21.522   7.593   5.801  0.1348  0.1678  0.0458
    1DIPC   C1A11909  21.083   7.617   5.554  0.0367 -0.0168  0.1326
    1DIPC   D2A11910  21.263   7.520   5.065 -0.3655 -0.0009  0.1186
    1DIPC   D3A11911  21.639   7.519   5.301  0.2627 -0.2467 -0.3076
    1DIPC   C4A11912  22.025   7.496   5.030  0.0285 -0.1246  0.2142
    1DIPC   C1B11913  21.309   7.268   5.840 -0.1971  0.0858  0.1126
    1DIPC   D2B11914  20.953   7.104   5.663  0.1601 -0.1941  0.0506
    1DIPC   D3B11915  21.236   7.071   5.240 -0.1724  0.0342 -0.1146
    1DIPC   C4B11916  21.112   6.917   4.803 -0.0275 -0.0397 -0.0539
    1DIPC   NC311917  19.578  17.905   6.203  0.1839  0.2530 -0.1833
    1DIPC   PO411918  19.157  18.161   6.085 -0.2743 -0.2202  0.3633
    1DIPC   GL111919  19.298  17.903   5.720  0.0425  0.1306  0.0165
    1DIPC   GL211920  19.315  17.944   5.340 -0.0494  0.0119  0.1172
    1DIPC   C1A11921  19.074  17.560   5.546  0.2252  0.1496  0.1302
    1DIPC   D2A11922  18.672  17.323   5.553  0.0558 -0.1054 -0.0358
    1DIPC   D3A11923  18.840  17.427   5.074 -0.4777 -0.0819  0.0372
    1DIPC   C4A11924  18.608  17.866   4.847 -0.2251  0.2735  0.1973
    1DIPC   C1B11925  19.106  17.986   4.998  0.1910  0.0770 -0.0860
    1DIPC   D2B11926  18.921  18.148   4.636 -0.1452  0.0326 -0.0680
    1DIPC   D3B11927  18.813  18.554   4.723 -0.1202  0.1954 -0.1786
    1DIPC   C4B11928  18.454  18.809   4.641  0.2266 -0.5541 -0.1975
    1DIPC   NC311929   9.671  29.851   7.329  0.0397 -0.1106 -0.0574
    1DIPC   PO411930   9.698  29.509   6.916  0.1701 -0.1158  0.1862
    1DIPC   GL111931   9.332  29.575   6.672  0.1284 -0.0746  0.2337
    1DIPC   GL211932   9.370  29.841   6.464  0.2343  0.0141  0.0755
    1DIPC   C1A11933   8.932  29.470   6.381 -0.0444  0.1920 -0.2779
    1DIPC   D2A11934   8.462  29.726   6.173 -0.0156 -0.3268 -0.2892
    1DIPC   D3A11935   8.002  29.604   6.163 -0.0934  0.0982 -0.1609
    1DIPC   C4A11936   7.727  29.956   6.032 -0.0758 -0.1531 -0.3427
    1DIPC   C1B11937   9.368  29.565   6.160 -0.0564 -0.0347  0.1422
    1DIPC   D2B11938   9.287  29.238   5.889  0.0605  0.2354  0.0486
    1DIPC   D3B11939   9.601  28.924   5.846  0.0973 -0.0602  0.3811
    1DIPC   C4B11940   9.497  28.525   5.742 -0.0281 -0.0088  0.2464
    1DIPC   NC311941  16.388   6.229   5.566 -0.0169  0.0441  0.2424
    1DIPC   PO411942  15.928   6.126   5.802 -0.0784 -0.4071 -0.1784
    1DIPC   GL111943  15.935   6.006   5.455  0.0588  0.3336  0.3678
    1DIPC   GL211944  15.610   6.115   5.315 -0.0667  0.0535  0.3971
    1DIPC   C1A11945  16.036   6.173   5.035  0.2882  0.1198 -0.1917
    1DIPC   D2A11946  15.998   6.360   4.647  0.1889 -0.1840  0.2879
    1DIPC   D3A11947  16.346   6.169   4.408 -0.1421 -0.2419 -0.1776
    1DIPC   C4A11948  16.666   6.373   4.523  0.0314  0.2842  0.2488
    1DIPC   C1B11949  15.579   5.981   4.937  0.1029 -0.1690 -0.4005
    1DIPC   D2B11950  15.466   5.657   4.657  0.0093 -0.1808  0.1379
    1DIPC   D3B11951  15.350   5.840   4.242  0.0443  0.4266  0.1580
    1DIPC   C4B11952  15.103   5.985   4.097  0.1288  0.0045  0.0485
    1DIPC   NC311953   9.139  11.486   7.036  0.0793 -0.1225 -0.0011
    1DIPC   PO411954   8.989  11.307   6.638  0.0215  0.0283  0.2150
    1DIPC   GL111955   9.127  11.076   6.221 -0.0646  0.1653 -0.2564
    1DIPC   GL211956   9.016  10.725   6.129  0.1119 -0.0976  0.3618
    1DIPC   C1A11957   9.030  10.915   5.708 -0.0093 -0.0759 -0.2152
    1DIPC   D2A11958   9.113  11.014   5.279 -0.1546  0.2186 -0.0465
    1DIPC   D3A11959   8.939  10.629   4.996 -0.0072  0.2675 -0.1427
    1DIPC   C4A11960   9.139  10.154   4.832 -0.0588  0.1809  0.3384
    1DIPC   C1B11961   9.091  10.362   5.963 -0.1506 -0.1783  0.2244
    1DIPC   D2B11962   8.825  10.108   5.734  0.1438 -0.0052  0.3263
    1DIPC   D3B11963   8.926  10.437   5.479  0.2806 -0.1077 -0.1781
    1DIPC   C4B11964   9.261  10.501   5.384 -0.1360  0.1261 -0.2681
    1DIPC   NC311965  16.182  25.388   6.450 -0.0046 -0.0675  0.1942
    1DIPC   PO411966  16.125  24.973   6.296 -0.0589  0.0431 -0.0530
    1DIPC   GL111967  16.483  25.269   6.007  0.2014 -0.0191  0.0158
    1DIPC   GL211968  16.316  25.562   5.873  0.0485  0.0515 -0.1768
    1DIPC   C1A11969  16.802  25.593   5.754  0.1499  0.0541  0.1433
    1DIPC   D2A11970  17.129  25.733   5.443  0.2239  0.0124 -0.0912
    1DIPC   D3A11971  16.969  26.141   5.710 -0.1218  0.1961  0.2334
    1DIPC   C4A11972  16.625  26.066   5.762  0.1398  0.3644  0.1186
    1DIPC   C1B11973  16.344  25.592   5.435 -0.1581  0.0838  0.1178
    1DIPC   D2B11974  16.454  25.694   4.949  0.1894 -0.1661  0.1066
    1DIPC   D3B11975  16.847  25.668   5.019 -0.0337  0.1382 -0.0573
    1DIPC   C4B11976  16.946  25.422   4.719  0.0213  0.0977 -0.1595
    1DIPC   NC311977  25.863   4.775   7.671 -0.1714  0.1488 -0.1426
    1DIPC   PO411978  25.484   5.069   7.607 -0.0160  0.0565  0.0945
    1DIPC   GL111979  25.674   5.187   7.033  0.4245  0.0597 -0.1150
    1DIPC   GL211980  25.821   5.467   7.019  0.1819  0.0138 -0.2057
    1DIPC   C1A11981  25.654   5.051   6.734 -0.1666  0.2187  0.3875
    1DIPC   D2A11982  25.740   5.199   6.203 -0.0470  0.4624 -0.0889
    1DIPC   D3A11983  25.795   5.497   6.475  0.0453  0.2115 -0.3030
    1DIPC   C4A11984  26.192   5.623   6.255  0.2618  0.0539 -0.1878
    1DIPC   C1B11985  26.161   5.194   6.734  0.2851 -0.0908 -0.0247
    1DIPC   D2B11986  26.147   4.896   6.314  0.0146  0.0401 -0.0575
    1DIPC   D3B11987  26.202   5.198   5.996  0.0069  0.2536 -0.1224
    1DIPC   C4B11988  26.064   5.559   5.746 -0.6124 -0.0153  0.2149
    1DIPC   NC311989   9.818  10.775   6.883  0.1927  0.0639  0.0726
    1DIPC   PO411990   9.719  10.979   6.481  0.1981 -0.0523  0.3065
    1DIPC   GL111991   9.684  11.179   6.151 -0.0265  0.3072  0.2668
    1DIPC   GL211992   9.695  11.514   6.132  0.1263 -0.0212  0.0068
    1DIPC   C1A11993   9.459  11.226   5.735  0.2611 -0.0347 -0.0083
    1DIPC   D2A11994   9.164  11.533   5.452 -0.2821 -0.0514  0.0216
    1DIPC   D3A11995   9.058  11.465   5.042  0.1795  0.0110  0.0923
    1DIPC   C4A11996   9.402  11.362   4.784  0.3245  0.2194  0.3102
    1DIPC   C1B11997   9.731  11.606   5.659 -0.0422 -0.1373 -0.3397
    1DIPC   D2B11998   9.601  11.735   5.191  0.1074  0.1599 -0.2815
    1DIPC   D3B11999   9.721  11.270   5.266 -0.0643 -0.0571  0.3666
    1DIPC   C4B12000  10.070  11.430   5.310  0.2160 -0.4281  0.3053
    1DIPC   NC312001  11.605  15.347   7.413  0.0421  0.0798  0.1637
    1DIPC   PO412002  11.443  15.006   7.334  0.0082  0.0135  0.0990
    1DIPC   GL112003  11.445  14.792   6.980 -0.0620  0.1165  0.0243
    1DIPC   GL212004  11.307  14.941   6.799 -0.2152 -0.1129  0.1457
    1DIPC   C1A12005  11.763  14.704   6.691  0.1023 -0.1616 -0.1554
    1DIPC   D2A12006  12.202  14.715   6.631  0.1073  0.0621  0.1718
    1DIPC   D3A12007  12.545  14.479   6.514  0.0131  0.2813 -0.1327
    1DIPC   C4A12008  12.775  14.373   6.216 -0.0575 -0.1953  0.1825
    1DIPC   C1B12009  11.472  15.027   6.346  0.0474 -0.0835 -0.1869
    1DIPC   D2B12010  11.632  14.761   6.031 -0.0504 -0.5458 -0.1054
    1DIPC   D3B12011  11.619  14.790   5.614  0.0753  0.1097 -0.0701
    1DIPC   C4B12012  11.304  14.692   5.391  0.2717 -0.0488 -0.0491
    1DIPC   NC312013  15.826  10.813   6.732  0.0365  0.0596  0.0976
    1DIPC   PO412014  15.906  11.196   6.678 -0.1758  0.1777  0.1429
    1DIPC   GL112015  15.976  10.948   6.248  0.0042 -0.3288 -0.2934
    1DIPC   GL212016  16.384  10.969   6.079 -0.2594  0.0841 -0.0423
    1DIPC   C1A12017  15.798  10.897   5.752  0.1311 -0.0844 -0.4167
    1DIPC   D2A12018  15.412  10.750   5.725 -0.0982  0.0684 -0.1529
    1DIPC   D3A12019  15.518  10.693   5.258 -0.1141  0.2897  0.1116
    1DIPC   C4A12020  15.587  10.445   4.912 -0.1087  0.1066 -0.1968
    1DIPC   C1B12021  16.597  11.089   5.735 -0.1199  0.4710  0.2082
    1DIPC   D2B12022  16.722  10.937   5.342 -0.0994 -0.0805  0.1448
    1DIPC   D3B12023  16.839  11.188   5.124 -0.2727 -0.5351 -0.3387
    1DIPC   C4B12024  16.725  11.365   4.739  0.2856 -0.1826 -0.1713
    1DIPC   NC312025  17.026  11.866   7.295 -0.0910  0.2317 -0.1091
    1DIPC   PO412026  16.839  12.276   7.134  0.0599  0.0643 -0.2371
    1DIPC   GL112027  16.625  12.565   6.812  0.2876  0.2090 -0.4862
    1DIPC   GL212028  16.802  12.373   6.470 -0.0640  0.2247  0.1033
    1DIPC   C1A12029  16.362  12.630   6.568 -0.1482 -0.3163 -0.0427
    1DIPC   D2A12030  16.103  12.723   6.194 -0.1509 -0.0881 -0.1657
    1DIPC   D3A12031  15.922  12.963   5.864  0.1705 -0.2582  0.0214
    1DIPC   C4A12032  16.133  13.126   5.507  0.2324  0.1491 -0.0765
    1DIPC   C1B12033  16.611  12.558   6.166  0.2130  0.1013  0.1066
    1DIPC   D2B12034  16.439  12.379   5.870  0.0280  0.2185 -0.1972
    1DIPC   D3B12035  16.503  12.091   5.680  0.1150 -0.0737  0.2953
    1DIPC   C4B12036  16.780  12.088   5.295  0.0217  0.5131 -0.0023
    1DIPC   NC312037  14.698   6.043   6.026 -0.0099 -0.0064  0.2447
    1DIPC   PO412038  15.082   6.044   5.708 -0.0958  0.1300  0.2203
    1DIPC   GL112039  15.113   6.206   5.275  0.3028  0.0804 -0.1453
    1DIPC   GL212040  15.336   6.523   5.280 -0.1059  0.2352  0.0177
    1DIPC   C1A12041  15.097   6.088   4.908  0.0995 -0.1127 -0.1296
    1DIPC   D2A12042  14.846   6.202   4.654  0.0145  0.0931  0.0090
    1DIPC   D3A12043  14.655   6.399   5.063  0.0413 -0.1983 -0.0525
    1DIPC   C4A12044  14.900   6.655   5.142  0.0948  0.0054  0.0437
    1DIPC   C1B12045  15.495   6.514   4.914  0.2645  0.1893 -0.2414
    1DIPC   D2B12046  15.404   6.258   4.496 -0.4329 -0.1445  0.0314
    1DIPC   D3B12047  15.590   6.292   4.000  0.1239 -0.2247 -0.3129
    1DIPC   C4B12048  15.251   6.317   3.646 -0.1725 -0.0844  0.0667
    1DIPC   NC312049  14.649  28.502   6.402  0.2064  0.0532  0.1500
    1DIPC   PO412050  14.293  28.866   6.404 -0.0390  0.0644 -0.0533
    1DIPC   GL112051  14.304  29.028   5.987  0.0334 -0.2730 -0.0695
    1DIPC   GL212052  14.370  28.819   5.841  0.1844 -0.3854 -0.3574
    1DIPC   C1A12053  14.308  29.325   5.645  0.1366  0.1174  0.4773
    1DIPC   D2A12054  14.616  29.605   5.455 -0.3973 -0.1913 -0.1573
    1DIPC   D3A12055  14.726  29.266   5.191  0.4350 -0.1919 -0.0323
    1DIPC   C4A12056  14.463  28.997   4.930 -0.0393 -0.2120 -0.0571
    1DIPC   C1B12057  14.398  28.882   5.412 -0.0024 -0.1138 -0.1944
    1DIPC   D2B12058  14.356  28.485   5.111  0.0313  0.1448 -0.3111
    1DIPC   D3B12059  14.035  28.747   4.863  0.1215  0.5281  0.1421
    1DIPC   C4B12060  13.929  28.979   5.107  0.1128 -0.1898 -0.2273
    1DIPC   NC312061  11.114  27.104   6.188  0.3116  0.1475 -0.0805
    1DIPC   PO412062  10.681  26.903   6.088 -0.2683  0.1393  0.0497
    1DIPC   GL112063  10.600  26.813   5.731 -0.1796 -0.1580  0.5442
    1DIPC   GL212064  10.986  26.837   5.713  0.2649  0.0581  0.2517
    1DIPC   C1A12065  10.336  26.952   5.483  0.1606  0.3638 -0.0785
    1DIPC   D2A12066  10.347  27.133   5.170 -0.0033 -0.0526  0.1760
    1DIPC   D3A12067   9.910  27.255   5.151  0.1687  0.0636  0.0696
    1DIPC   C4A12068   9.514  27.124   4.842 -0.0239  0.4148 -0.0379
    1DIPC   C1B12069  11.180  27.016   5.440 -0.0377  0.0393  0.0782
    1DIPC   D2B12070  11.371  26.902   5.105 -0.1620 -0.0759 -0.0202
    1DIPC   D3B12071  11.127  26.956   4.741 -0.0373  0.0721 -0.2564
    1DIPC   C4B12072  10.879  27.198   4.446 -0.0016  0.0050  0.0484
    1DIPC   NC312073   3.824   2.650   7.493 -0.0981 -0.2961 -0.0095
    1DIPC   PO412074   3.538   2.427   7.283  0.0963 -0.2204 -0.0486
    1DIPC   GL112075   3.244   2.318   6.907  0.0108 -0.5832  0.1148
    1DIPC   GL212076   3.101   2.483   6.659 -0.0902  0.2957 -0.0772
    1DIPC   C1A12077   3.226   2.026   6.521  0.2341  0.0083  0.1553
    1DIPC   D2A12078   3.208   1.951   6.092 -0.0117 -0.3577 -0.1936
    1DIPC   D3A12079   3.543   1.863   5.846 -0.3507  0.0896  0.0222
    1DIPC   C4A12080   3.803   2.254   5.706  0.2494  0.2582  0.0864
    1DIPC   C1B12081   3.280   2.743   6.190  0.0676 -0.0714 -0.0638
    1DIPC   D2B12082   3.359   2.965   5.757 -0.0505 -0.0073  0.1916
    1DIPC   D3B12083   3.527   2.600   5.445  0.2902  0.1321  0.0384
    1DIPC   C4B12084   3.513   2.202   5.338  0.2529 -0.0734 -0.1162
    1DIPC   NC312085  19.230  25.952   6.276 -0.0437  0.0850  0.2966
    1DIPC   PO412086  19.310  26.362   6.287 -0.3186 -0.1303 -0.0485
    1DIPC   GL112087  19.031  26.748   6.129 -0.2145  0.5003 -0.1251
    1DIPC   GL212088  19.261  26.988   6.000 -0.1148 -0.2226 -0.2785
    1DIPC   C1A12089  18.895  26.828   5.738  0.1983 -0.3135  0.0582
    1DIPC   D2A12090  18.867  26.852   5.318  0.0856  0.1527 -0.2353
    1DIPC   D3A12091  18.882  26.459   5.068 -0.2288 -0.0677  0.0604
    1DIPC   C4A12092  18.935  26.078   5.259  0.1619 -0.0840  0.2829
    1DIPC   C1B12093  19.343  26.947   5.511 -0.0446  0.1074  0.1568
    1DIPC   D2B12094  19.303  26.894   5.027 -0.1287  0.0100 -0.2014
    1DIPC   D3B12095  19.487  26.436   5.179 -0.0320  0.0860 -0.4651
    1DIPC   C4B12096  19.396  26.038   5.109 -0.0532 -0.0181  0.1388
    1DIPC   NC312097  28.853   2.379   7.413 -0.0798 -0.5440  0.0483
    1DIPC   PO412098  28.633   2.676   7.184 -0.0505 -0.1602 -0.2197
    1DIPC   GL112099  28.679   2.356   6.907 -0.3901  0.0279 -0.1111
    1DIPC   GL212100  28.384   2.045   6.800  0.1969  0.3455  0.0893
    1DIPC   C1A12101  28.732   2.037   6.461  0.1118  0.1688  0.3248
    1DIPC   D2A12102  28.881   1.813   6.060  0.2563 -0.1725 -0.1183
    1DIPC   D3A12103  28.493   1.852   5.805 -0.2428 -0.2093  0.3542
    1DIPC   C4A12104  28.332   2.187   5.660 -0.0760 -0.1165  0.0943
    1DIPC   C1B12105  28.092   1.767   6.578  0.0719 -0.0959 -0.2210
    1DIPC   D2B12106  27.834   1.526   6.202  0.0123 -0.3418 -0.2434
    1DIPC   D3B12107  28.000   1.803   5.790 -0.0408  0.0126 -0.0263
    1DIPC   C4B12108  28.221   1.708   5.364 -0.0557 -0.1369  0.2441
    1DIPC   NC312109  29.387  29.448   7.226  0.1073 -0.0407 -0.1212
    1DIPC   PO412110  29.722  29.637   6.959  0.0973  0.2844 -0.0033
    1DIPC   GL112111  29.939  29.394   6.559  0.0095 -0.2316  0.2272
    1DIPC   GL212112  30.254  29.419   6.492  0.1601  0.2066 -0.1605
    1DIPC   C1A12113  30.118  29.037   6.262  0.0575 -0.5295 -0.0502
    1DIPC   D2A12114   0.079  28.931   5.995  0.0701 -0.1449 -0.1448
    1DIPC   D3A12115   0.320  29.095   6.309 -0.1531 -0.0494  0.2253
    1DIPC   C4A12116   0.416  29.489   6.586  0.3239 -0.0841  0.0795
    1DIPC   C1B12117   0.034  29.458   6.056 -0.1899  0.0164  0.2264
    1DIPC   D2B12118   0.379  29.719   5.874 -0.1425 -0.0004 -0.1629
    1DIPC   D3B12119   0.307  29.828   6.232 -0.1726 -0.0837  0.1672
    1DIPC   C4B12120   0.202  29.948   6.629 -0.1765 -0.4294 -0.0603
    1DIPC   NC312121  13.502   4.027   6.582  0.0616  0.0797  0.1036
    1DIPC   PO412122  13.033   4.052   6.576  0.1395  0.2770  0.2145
    1DIPC   GL112123  12.972   4.238   6.152  0.1785 -0.0694 -0.1350
    1DIPC   GL212124  13.069   4.459   5.972  0.1747  0.1305 -0.0439
    1DIPC   C1A12125  13.050   3.830   5.791 -0.0075  0.1020 -0.0258
    1DIPC   D2A12126  13.025   3.786   5.336 -0.1053  0.0018 -0.0729
    1DIPC   D3A12127  13.386   3.945   5.182 -0.0918  0.0360  0.0004
    1DIPC   C4A12128  13.750   3.656   5.025  0.2043 -0.1646 -0.0176
    1DIPC   C1B12129  13.288   4.203   5.633  0.1382  0.0202 -0.2287
    1DIPC   D2B12130  13.690   4.122   5.595 -0.0492 -0.0623 -0.0115
    1DIPC   D3B12131  13.911   4.087   5.224  0.3002 -0.2430 -0.1335
    1DIPC   C4B12132  14.128   4.433   5.079  0.0038  0.1990  0.3162
    1DIPC   NC312133   6.068  29.318   7.057  0.0965  0.2091  0.0375
    1DIPC   PO412134   5.996  29.802   6.854 -0.1118 -0.2225  0.0852
    1DIPC   GL112135   6.121  30.125   6.556 -0.0167 -0.1718  0.0167
    1DIPC   GL212136   6.386  30.172   6.382  0.3749  0.1584 -0.0319
    1DIPC   C1A12137   5.949  30.168   6.168 -0.1156 -0.3852 -0.0862
    1DIPC   D2A12138   6.005  30.009   5.833  0.1697  0.0729 -0.2029
    1DIPC   D3A12139   5.587  29.857   5.984 -0.1337 -0.2061  0.5471
    1DIPC   C4A12140   5.172  29.889   5.808 -0.0178 -0.2360 -0.3775
    1DIPC   C1B12141   6.352   0.194   6.156  0.1927 -0.2461  0.3102
    1DIPC   D2B12142   6.449   0.392   5.784  0.1439  0.0430  0.1183
    1DIPC   D3B12143   6.093   0.611   5.864 -0.1068  0.0200  0.3599
    1DIPC   C4B12144   5.981   0.791   5.462 -0.3434 -0.0236 -0.0453
    1DIPC   NC312145  19.789  26.825   6.833  0.0604 -0.1485 -0.1461
    1DIPC   PO412146  19.786  26.481   6.573  0.0691  0.0399 -0.1151
    1DIPC   GL112147  19.743  26.473   6.106  0.0451  0.3305  0.0881
    1DIPC   GL212148  20.092  26.374   5.998 -0.0090  0.3366 -0.0763
    1DIPC   C1A12149  19.764  26.848   5.955  0.1663  0.0122 -0.1281
    1DIPC   D2A12150  19.924  27.114   5.706  0.0962 -0.2894  0.1551
    1DIPC   D3A12151  19.816  26.942   5.291 -0.1316 -0.2400 -0.2301
    1DIPC   C4A12152  20.053  26.729   5.174 -0.2687  0.0964 -0.0900
    1DIPC   C1B12153  20.227  26.730   5.725 -0.1548  0.0930 -0.1218
    1DIPC   D2B12154  20.340  27.153   5.456  0.0002  0.1134 -0.2518
    1DIPC   D3B12155  20.205  27.264   5.016  0.0430  0.2618  0.3586
    1DIPC   C4B12156  20.296  27.638   4.764 -0.3006  0.0521 -0.0220
    1DIPC   NC312157  20.289  13.037   5.885  0.1476  0.1460  0.3123
    1DIPC   PO412158  20.703  12.990   5.972 -0.5133  0.0955  0.0540
    1DIPC   GL112159  20.731  13.290   5.643 -0.1043 -0.0971  0.2657
    1DIPC   GL212160  20.987  13.297   5.471  0.2062  0.0102  0.1391
    1DIPC   C1A12161  20.595  13.360   5.215 -0.0027 -0.1549 -0.1238
    1DIPC   D2A12162  20.377  13.317   4.896 -0.1438 -0.1421 -0.2415
    1DIPC   D3A12163  20.399  13.758   4.722  0.0112  0.2518  0.1615
    1DIPC   C4A12164  20.075  13.871   4.755 -0.1069 -0.0385 -0.0205
    1DIPC   C1B12165  21.276  13.327   5.151 -0.0034 -0.1151  0.1013
    1DIPC   D2B12166  21.436  13.400   4.760 -0.1868  0.0879  0.2201
    1DIPC   D3B12167  21.411  13.822   4.854 -0.1036  0.1766  0.0124
    1DIPC   C4B12168  21.578  14.140   4.556 -0.1662  0.2327 -0.1004
    1DIPC   NC312169  18.454   1.226   6.460  0.0015  0.2869  0.0867
    1DIPC   PO412170  18.826   0.907   6.509 -0.0388  0.0506  0.1924
    1DIPC   GL112171  19.102   0.799   6.153  0.1168 -0.0610 -0.1290
    1DIPC   GL212172  19.319   0.514   6.282 -0.0150  0.0837  0.1008
    1DIPC   C1A12173  19.277   0.860   5.843  0.3280 -0.1136  0.0716
    1DIPC   D2A12174  19.412   0.453   5.611  0.0819 -0.0816 -0.4204
    1DIPC   D3A12175  19.541   0.295   5.218  0.1011 -0.0622 -0.2546
    1DIPC   C4A12176  19.494   0.594   4.820  0.3826  0.1443 -0.0161
    1DIPC   C1B12177  19.601   0.341   6.050 -0.0808  0.1409  0.0778
    1DIPC   D2B12178  19.675  30.347   5.729  0.2129 -0.1049 -0.0419
    1DIPC   D3B12179  19.575  30.141   5.347  0.1313 -0.3003 -0.0485
    1DIPC   C4B12180  19.342  30.254   4.969  0.3054  0.1802  0.1236
    1DIPC   NC312181   4.748  28.175   6.836 -0.2685 -0.2685  0.2544
    1DIPC   PO412182   4.371  28.206   6.866  0.1968  0.1746  0.3358
    1DIPC   GL112183   4.339  28.241   6.490 -0.1451  0.0795 -0.0781
    1DIPC   GL212184   4.492  28.003   6.390  0.1381 -0.0900  0.1997
    1DIPC   C1A12185   4.268  28.477   6.149  0.1457 -0.0102 -0.1753
    1DIPC   D2A12186   4.228  28.718   5.713 -0.0474 -0.1022 -0.3029
    1DIPC   D3A12187   4.071  28.481   5.367 -0.2131 -0.0478  0.0959
    1DIPC   C4A12188   3.665  28.457   5.292  0.1928 -0.2793 -0.1387
    1DIPC   C1B12189   4.410  27.784   6.016 -0.3156 -0.2318 -0.0361
    1DIPC   D2B12190   4.593  27.870   5.589 -0.1275 -0.0872  0.1086
    1DIPC   D3B12191   4.593  27.507   5.403 -0.0460  0.1556  0.0752
    1DIPC   C4B12192   4.694  27.325   4.999  0.0170  0.1916  0.1083
    1DIPC   NC312193  29.297  10.221   7.316  0.2197  0.0599 -0.0211
    1DIPC   PO412194  29.552  10.333   6.939  0.1582  0.1249 -0.0089
    1DIPC   GL112195  29.342  10.317   6.496 -0.2040 -0.2900 -0.1858
    1DIPC   GL212196  29.270  10.076   6.589 -0.0210 -0.1713  0.0221
    1DIPC   C1A12197  29.212  10.447   6.192  0.2641 -0.3820 -0.2964
    1DIPC   D2A12198  29.183  10.575   5.712 -0.2568  0.2870 -0.2080
    1DIPC   D3A12199  29.180  10.505   5.233 -0.1646  0.1965  0.1679
    1DIPC   C4A12200  28.811  10.529   5.022  0.4502 -0.2349 -0.0197
    1DIPC   C1B12201  29.516  10.033   6.198 -0.1419  0.2156 -0.0621
    1DIPC   D2B12202  29.600  10.396   5.857  0.3507 -0.4349  0.0321
    1DIPC   D3B12203  29.988  10.514   5.662  0.0593 -0.4488  0.4460
    1DIPC   C4B12204  30.111  10.458   5.333  0.0974 -0.1287  0.1393
    1DIPC   NC312205  21.854  16.411   6.163 -0.0121  0.0589 -0.0794
    1DIPC   PO412206  22.158  15.983   6.003  0.1467  0.0594  0.2546
    1DIPC   GL112207  22.133  15.750   5.601 -0.1662 -0.0331  0.1711
    1DIPC   GL212208  21.937  15.454   5.460 -0.2282 -0.1882 -0.1191
    1DIPC   C1A12209  21.895  15.988   5.288  0.3699 -0.1904  0.0143
    1DIPC   D2A12210  21.959  16.329   5.038  0.3380  0.0819 -0.0067
    1DIPC   D3A12211  21.794  16.657   5.236  0.1098 -0.0678 -0.1052
    1DIPC   C4A12212  21.414  16.681   5.073 -0.2656 -0.1457  0.0040
    1DIPC   C1B12213  21.509  15.620   5.197 -0.1517  0.0880 -0.1252
    1DIPC   D2B12214  21.461  15.500   4.776 -0.0004  0.3793  0.2748
    1DIPC   D3B12215  21.381  15.796   4.444  0.0905  0.4088 -0.1216
    1DIPC   C4B12216  20.916  15.816   4.369  0.4267  0.1310 -0.1015
    1DIPC   NC312217  19.115   5.253   6.119  0.4154 -0.2447 -0.0033
    1DIPC   PO412218  19.128   5.571   5.976 -0.0824  0.3874  0.0272
    1DIPC   GL112219  19.241   5.384   5.566 -0.3505  0.2432  0.1715
    1DIPC   GL212220  19.211   5.599   5.370  0.2004 -0.2700 -0.2856
    1DIPC   C1A12221  19.303   5.142   5.181  0.0502 -0.3034  0.0688
    1DIPC   D2A12222  19.146   4.925   4.872 -0.0485  0.1534 -0.0049
    1DIPC   D3A12223  18.955   4.649   4.493 -0.0648  0.1816 -0.2308
    1DIPC   C4A12224  19.258   4.536   4.382  0.1637  0.0376 -0.0684
    1DIPC   C1B12225  19.341   5.588   4.947 -0.2747  0.1798  0.3356
    1DIPC   D2B12226  19.713   5.773   4.756  0.1042 -0.2809 -0.1783
    1DIPC   D3B12227  19.393   5.582   4.364 -0.1689 -0.0455 -0.0447
    1DIPC   C4B12228  19.291   5.128   4.313  0.0786  0.0966  0.5129
    1DIPC   NC312229   0.859  28.057   7.378  0.1427 -0.0557  0.1129
    1DIPC   PO412230   0.955  28.304   7.011 -0.2487 -0.0106  0.0475
    1DIPC   GL112231   0.720  28.284   6.702  0.1738 -0.0416 -0.0352
    1DIPC   GL212232   0.251  28.277   6.718 -0.0785  0.1602  0.0827
    1DIPC   C1A12233   0.701  28.130   6.270  0.1535  0.2128 -0.0394
    1DIPC   D2A12234   0.385  27.665   6.191  0.1741 -0.1054 -0.0789
    1DIPC   D3A12235   0.493  27.391   6.031  0.0554 -0.1196  0.1140
    1DIPC   C4A12236   0.206  27.131   5.891  0.0420 -0.1655  0.1063
    1DIPC   C1B12237   0.342  28.500   6.332 -0.0225  0.0651  0.2940
    1DIPC   D2B12238   0.609  28.503   5.934 -0.0491 -0.0650 -0.0450
    1DIPC   D3B12239   0.471  28.770   5.531  0.1152  0.1369 -0.2567
    1DIPC   C4B12240   0.367  29.277   5.704  0.5044  0.3531  0.3909
    1DIPC   NC312241  16.760   3.484   6.723 -0.0393  0.2913 -0.0249
    1DIPC   PO412242  16.977   3.308   6.362 -0.2041 -0.3004 -0.1980
    1DIPC   GL112243  16.937   3.049   5.916 -0.0959 -0.0940 -0.2197
    1DIPC   GL212244  16.998   3.275   5.604 -0.4351  0.2131  0.0996
    1DIPC   C1A12245  16.590   2.830   5.632 -0.0741 -0.2216  0.2804
    1DIPC   D2A12246  16.386   2.499   5.504 -0.2752  0.1865  0.1611
    1DIPC   D3A12247  15.895   2.307   5.248  0.1824 -0.3758 -0.2540
    1DIPC   C4A12248  16.013   1.971   4.965  0.0826  0.0146  0.2134
    1DIPC   C1B12249  17.141   2.998   5.322 -0.1345  0.1115  0.0555
    1DIPC   D2B12250  17.316   2.704   5.016  0.1075  0.1587  0.2515
    1DIPC   D3B12251  17.374   2.976   4.632 -0.1095  0.0853  0.0548
    1DIPC   C4B12252  17.746   2.896   4.437 -0.2399 -0.0417 -0.1136
    1DIPC   NC312253  20.731   1.583   6.868  0.0332  0.2079 -0.3971
    1DIPC   PO412254  21.057   1.299   6.801  0.3151  0.0378 -0.1665
    1DIPC   GL112255  21.024   1.675   6.411 -0.0147 -0.0508 -0.2650
    1DIPC   GL212256  20.726   1.662   6.304  0.1960 -0.1789 -0.0220
    1DIPC   C1A12257  21.363   1.746   6.075 -0.1614 -0.0831  0.1798
    1DIPC   D2A12258  21.641   1.813   5.766 -0.1685 -0.0447  0.2229
    1DIPC   D3A12259  21.913   2.007   5.977  0.1963 -0.0896 -0.0790
    1DIPC   C4A12260  21.840   2.063   6.356 -0.0628  0.1000 -0.1682
    1DIPC   C1B12261  20.877   1.748   5.883  0.0231  0.2117 -0.0816
    1DIPC   D2B12262  21.192   1.566   5.634 -0.2257 -0.0040 -0.3426
    1DIPC   D3B12263  21.252   1.209   5.942 -0.1143 -0.0357  0.2072
    1DIPC   C4B12264  20.848   1.069   5.841 -0.0827  0.0444 -0.0391
    1DIPC   NC312265  23.639  21.669   6.280  0.1099 -0.0426  0.2957
    1DIPC   PO412266  23.754  21.488   5.959 -0.1490 -0.0122 -0.1057
    1DIPC   GL112267  23.858  21.525   5.504 -0.0435 -0.4561  0.1436
    1DIPC   GL212268  24.009  21.872   5.418 -0.0337 -0.0799 -0.0666
    1DIPC   C1A12269  23.821  21.526   5.017  0.4595 -0.2728  0.1559
    1DIPC   D2A12270  23.542  21.487   4.584 -0.1549 -0.3297 -0.1974
    1DIPC   D3A12271  23.828  21.684   4.263 -0.0083  0.0528  0.0894
    1DIPC   C4A12272  23.958  21.424   3.895  0.0219 -0.1176 -0.0252
    1DIPC   C1B12273  24.130  22.207   5.185 -0.1006  0.0237 -0.1074
    1DIPC   D2B12274  24.205  22.361   4.747 -0.0145 -0.4135 -0.0888
    1DIPC   D3B12275  23.944  22.598   4.658  0.0048 -0.1312 -0.1368
    1DIPC   C4B12276  24.043  22.592   4.225  0.2080 -0.0596  0.1068
    1DIPC   NC312277  11.092  21.618   6.317  0.0668 -0.0500 -0.3222
    1DIPC   PO412278  11.433  21.668   5.960  0.0166  0.0789 -0.0018
    1DIPC   GL112279  11.569  21.872   5.550  0.3591  0.3677 -0.1584
    1DIPC   GL212280  11.709  22.261   5.544  0.2166 -0.0743 -0.0516
    1DIPC   C1A12281  11.393  22.003   5.095  0.1448 -0.3612  0.1780
    1DIPC   D2A12282  11.187  21.819   4.747 -0.2932 -0.1034 -0.0745
    1DIPC   D3A12283  11.258  21.414   4.790  0.1818  0.0953 -0.0628
    1DIPC   C4A12284  11.428  21.115   5.004 -0.1525 -0.0724  0.0059
    1DIPC   C1B12285  11.706  22.424   5.108  0.1996 -0.6062 -0.1495
    1DIPC   D2B12286  11.516  22.767   4.790 -0.0398  0.0111  0.1841
    1DIPC   D3B12287  11.703  22.807   4.519  0.1637  0.1713 -0.0891
    1DIPC   C4B12288  11.453  22.765   4.216  0.0075 -0.0662  0.0969
    1DIPC   NC312289  15.148  29.431   6.584 -0.1369 -0.1815 -0.0614
    1DIPC   PO412290  15.415  29.057   6.513  0.1162  0.0856 -0.1670
    1DIPC   GL112291  15.553  28.942   6.009  0.2835 -0.1826 -0.1060
    1DIPC   GL212292  15.566  29.164   5.821 -0.3153 -0.0575  0.2013
    1DIPC   C1A12293  15.611  28.623   5.713  0.0015 -0.0303 -0.3602
    1DIPC   D2A12294  15.715  28.413   5.317  0.3409  0.2055  0.0595
    1DIPC   D3A12295  15.784  28.178   5.712 -0.1573  0.1834 -0.1343
    1DIPC   C4A12296  15.525  27.801   5.868 -0.1544  0.4594  0.0053
    1DIPC   C1B12297  15.236  29.026   5.381  0.1015  0.2323 -0.0455
    1DIPC   D2B12298  14.982  28.928   4.990 -0.0500 -0.0453 -0.0066
    1DIPC   D3B12299  15.289  28.618   4.739  0.1974  0.1483 -0.1085
    1DIPC   C4B12300  15.640  28.475   4.849  0.0389 -0.2883 -0.0530
    1DIPC   NC312301  10.156   1.499   6.545 -0.2764  0.1937 -0.1779
    1DIPC   PO412302  10.547   1.363   6.348 -0.0399  0.0018 -0.1306
    1DIPC   GL112303  10.317   1.013   6.152 -0.2554 -0.0234  0.0393
    1DIPC   GL212304   9.970   0.815   6.216  0.0726 -0.2525  0.2432
    1DIPC   C1A12305  10.302   0.786   5.815  0.0896  0.0073 -0.1152
    1DIPC   D2A12306  10.193   0.706   5.357  0.1242  0.1894  0.1370
    1DIPC   D3A12307   9.969   1.045   5.416  0.1478 -0.3505 -0.1449
    1DIPC   C4A12308  10.141   1.304   5.750 -0.1177  0.0281  0.2435
    1DIPC   C1B12309   9.837   0.740   5.861 -0.0885 -0.1173  0.0737
    1DIPC   D2B12310   9.695   0.663   5.431  0.3139  0.1110 -0.1357
    1DIPC   D3B12311   9.718   0.165   5.400 -0.1572 -0.1600 -0.0325
    1DIPC   C4B12312   9.993  30.212   5.172 -0.1799 -0.0548  0.0882
    1DIPC   NC312313  16.059  23.606   6.626 -0.1845  0.2669  0.0825
    1DIPC   PO412314  15.761  23.841   6.308 -0.1688  0.4198 -0.0443
    1DIPC   GL112315  15.503  23.693   5.913  0.1254 -0.2203 -0.0096
    1DIPC   GL212316  15.233  23.913   5.752  0.2196  0.0593  0.1282
    1DIPC   C1A12317  15.459  23.520   5.406  0.1224 -0.1698  0.3527
    1DIPC   D2A12318  15.279  23.645   5.072 -0.1422 -0.0753  0.0659
    1DIPC   D3A12319  15.458  23.680   4.641  0.0964 -0.1970 -0.0529
    1DIPC   C4A12320  15.363  23.624   4.193  0.0490  0.0642  0.0171
    1DIPC   C1B12321  15.335  24.055   5.371 -0.2358  0.2488 -0.0330
    1DIPC   D2B12322  15.494  24.112   4.935 -0.2425 -0.0062  0.3884
    1DIPC   D3B12323  15.653  24.406   5.149  0.0125  0.0986  0.2420
    1DIPC   C4B12324  16.022  24.737   5.002  0.1880 -0.0651 -0.1366
    1DIPC   NC312325  16.754   4.469   5.941 -0.0668 -0.0707  0.1919
    1DIPC   PO412326  16.489   4.707   5.864 -0.1400  0.0320  0.0943
    1DIPC   GL112327  16.513   4.632   5.458 -0.2057  0.1710  0.1520
    1DIPC   GL212328  16.778   4.376   5.390  0.0002 -0.0439 -0.1545
    1DIPC   C1A12329  16.271   4.202   5.253  0.2063 -0.2787 -0.1626
    1DIPC   D2A12330  15.940   4.079   5.011 -0.2595  0.1207  0.0880
    1DIPC   D3A12331  15.551   4.232   5.115  0.0656 -0.0645  0.3657
    1DIPC   C4A12332  15.513   4.448   5.459 -0.2353  0.0681 -0.1827
    1DIPC   C1B12333  16.810   4.132   5.142 -0.3509 -0.2165  0.1397
    1DIPC   D2B12334  16.861   3.784   4.817 -0.0284 -0.0620 -0.0178
    1DIPC   D3B12335  16.726   3.884   4.425 -0.2867 -0.2656 -0.3328
    1DIPC   C4B12336  16.413   4.070   4.661 -0.1080  0.2259 -0.1406
    1DIPC   NC312337  27.279  27.023   7.582 -0.0647  0.1719 -0.0801
    1DIPC   PO412338  27.500  26.967   7.220 -0.1461  0.2274 -0.0111
    1DIPC   GL112339  27.385  27.035   6.800 -0.3272  0.2513  0.0725
    1DIPC   GL212340  27.379  27.396   6.762 -0.1716  0.3467 -0.3910
    1DIPC   C1A12341  27.029  26.996   6.413  0.0884  0.1387  0.0878
    1DIPC   D2A12342  26.796  27.040   6.195  0.3412 -0.4167 -0.1247
    1DIPC   D3A12343  26.748  27.253   5.783 -0.2086 -0.2144 -0.1316
    1DIPC   C4A12344  26.893  27.189   5.395  0.3736  0.0105  0.0524
    1DIPC   C1B12345  27.336  27.530   6.345  0.0514  0.2545 -0.0575
    1DIPC   D2B12346  27.156  27.587   5.822  0.2212 -0.1234  0.2135
    1DIPC   D3B12347  27.413  27.990   5.757 -0.1012 -0.0532 -0.4515
    1DIPC   C4B12348  27.523  28.029   5.254 -0.1152 -0.0768 -0.0767
    1DIPC   NC312349  11.862  14.711   7.512 -0.0668  0.3357 -0.0027
    1DIPC   PO412350  12.277  14.747   7.384  0.0850  0.0082 -0.0354
    1DIPC   GL112351  12.210  14.476   7.102  0.4220 -0.0257  0.4140
    1DIPC   GL212352  11.961  14.400   7.025 -0.0699 -0.0582 -0.0886
    1DIPC   C1A12353  12.398  14.116   6.782 -0.0941 -0.1936 -0.1542
    1DIPC   D2A12354  12.214  14.090   6.340 -0.0197  0.0024  0.1550
    1DIPC   D3A12355  12.012  13.725   6.159 -0.1065 -0.3170 -0.2522
    1DIPC   C4A12356  12.102  13.543   5.727  0.2514  0.1943  0.1086
    1DIPC   C1B12357  11.920  14.190   6.662 -0.0204  0.0455 -0.0892
    1DIPC   D2B12358  11.724  14.223   6.268  0.1063  0.2019 -0.2915
    1DIPC   D3B12359  11.929  14.061   5.831  0.2319  0.2084  0.3534
    1DIPC   C4B12360  11.676  13.923   5.478 -0.1540 -0.0080 -0.0290
    1DIPC   NC312361   4.160   1.748   7.351  0.3614 -0.0157 -0.1199
    1DIPC   PO412362   4.187   2.157   7.385 -0.5207 -0.1557  0.1647
    1DIPC   GL112363   4.178   2.153   6.966  0.1707 -0.1439 -0.0606
    1DIPC   GL212364   4.398   1.905   6.835 -0.1341  0.3677 -0.0819
    1DIPC   C1A12365   3.969   2.301   6.624  0.1526 -0.1109  0.0731
    1DIPC   D2A12366   3.581   2.374   6.574 -0.0564 -0.0729  0.1099
    1DIPC   D3A12367   3.658   2.347   6.177 -0.1853  0.2339  0.3738
    1DIPC   C4A12368   3.318   2.455   5.834 -0.1493  0.2710 -0.1487
    1DIPC   C1B12369   4.620   2.180   6.434  0.0558  0.1531  0.1441
    1DIPC   D2B12370   4.791   2.371   5.966  0.2003 -0.4483 -0.1219
    1DIPC   D3B12371   4.573   1.994   5.919 -0.0078  0.1338  0.0029
    1DIPC   C4B12372   4.346   1.809   5.535  0.2206 -0.3045  0.1296
    1DIPC   NC312373  24.391   2.461   7.397  0.0476  0.2482  0.0261
    1DIPC   PO412374  24.512   2.903   7.127  0.3707 -0.0408 -0.1108
    1DIPC   GL112375  24.514   2.911   6.668  0.0407  0.3099 -0.3488
    1DIPC   GL212376  24.218   2.855   6.500 -0.1341  0.0229 -0.0887
    1DIPC   C1A12377  24.705   2.882   6.200  0.0354  0.2877  0.1801
    1DIPC   D2A12378  25.078   2.901   5.929  0.0782 -0.0980  0.2025
    1DIPC   D3A12379  25.308   3.083   5.641  0.0038 -0.2082 -0.2170
    1DIPC   C4A12380  25.119   3.316   5.274 -0.2936 -0.3834  0.1511
    1DIPC   C1B12381  24.294   2.663   6.056 -0.0719 -0.0478  0.2532
    1DIPC   D2B12382  24.416   2.847   5.712 -0.1076  0.1844  0.2587
    1DIPC   D3B12383  24.611   2.961   5.309  0.2776 -0.3476  0.1653
    1DIPC   C4B12384  24.999   2.695   5.391 -0.0977 -0.0709  0.1007
    1DIPC   NC312385  14.975  22.632   6.420  0.3963  0.0816  0.2725
    1DIPC   PO412386  14.600  22.505   6.220  0.1536  0.1057 -0.3272
    1DIPC   GL112387  14.501  22.616   5.755 -0.1490 -0.0889 -0.1746
    1DIPC   GL212388  14.616  22.300   5.515  0.1302 -0.1134  0.2154
    1DIPC   C1A12389  14.235  22.813   5.512  0.0473  0.1273 -0.0469
    1DIPC   D2A12390  13.841  22.714   5.148 -0.0284 -0.0048  0.0190
    1DIPC   D3A12391  13.723  22.332   4.999 -0.0000 -0.2051 -0.0265
    1DIPC   C4A12392  13.503  22.382   4.574 -0.0647 -0.2610  0.0091
    1DIPC   C1B12393  14.910  22.681   5.491  0.0530  0.0504 -0.0117
    1DIPC   D2B12394  15.147  23.040   5.518  0.3517 -0.1076  0.1522
    1DIPC   D3B12395  15.148  23.030   5.120  0.1226 -0.0217 -0.2244
    1DIPC   C4B12396  14.707  22.918   5.029  0.1204 -0.3088 -0.0147
    1DIPC   NC312397  11.936  20.218   5.471 -0.2615 -0.2116 -0.2675
    1DIPC   PO412398  11.580  19.996   5.430  0.0607 -0.2534 -0.2735
    1DIPC   GL112399  11.525  20.124   5.092 -0.0610 -0.1972  0.0828
    1DIPC   GL212400  11.598  20.497   5.127 -0.2529 -0.0381 -0.0942
    1DIPC   C1A12401  11.383  20.294   4.737  0.0253  0.1487 -0.0493
    1DIPC   D2A12402  11.144  19.986   4.320  0.0022  0.3339  0.3895
    1DIPC   D3A12403  11.064  20.369   4.000 -0.1785 -0.1612  0.2979
    1DIPC   C4A12404  11.382  20.437   3.761  0.0673 -0.2424  0.0285
    1DIPC   C1B12405  11.859  20.471   4.714 -0.0211 -0.1239 -0.0922
    1DIPC   D2B12406  11.985  20.360   4.299  0.0709  0.0862  0.1719
    1DIPC   D3B12407  11.976  20.591   3.885  0.0746  0.2755  0.0649
    1DIPC   C4B12408  12.039  21.074   3.894 -0.0014 -0.2634  0.0446
    1DIPC   NC312409  21.151   9.055   6.006 -0.1785 -0.0212  0.1732
    1DIPC   PO412410  21.399   8.720   6.087  0.0508 -0.1894 -0.0638
    1DIPC   GL112411  21.478   8.526   5.745 -0.0875  0.1442 -0.0155
    1DIPC   GL212412  21.424   8.705   5.595  0.1844  0.0970  0.0392
    1DIPC   C1A12413  21.179   8.235   5.544 -0.0305  0.1766  0.0108
    1DIPC   D2A12414  21.038   8.142   5.083  0.0667 -0.0331  0.1667
    1DIPC   D3A12415  20.866   7.771   4.913  0.2571  0.1464  0.2630
    1DIPC   C4A12416  21.011   7.422   4.604 -0.1547 -0.3733 -0.0092
    1DIPC   C1B12417  21.066   8.706   5.327  0.1183  0.2123  0.2987
    1DIPC   D2B12418  20.748   8.948   5.337 -0.1151 -0.0380  0.3400
    1DIPC   D3B12419  20.372   9.164   5.370 -0.2117  0.0710 -0.2324
    1DIPC   C4B12420  20.171   9.068   4.991 -0.1701 -0.3753 -0.0393
    1DIPC   NC312421   7.683  20.418   5.937 -0.3021  0.0004 -0.2607
    1DIPC   PO412422   7.286  20.246   5.860 -0.2009  0.1851 -0.0666
    1DIPC   GL112423   7.438  20.374   5.471  0.0925  0.0553 -0.0903
    1DIPC   GL212424   7.659  20.185   5.435 -0.0861 -0.0982 -0.0438
    1DIPC   C1A12425   7.456  20.446   4.945  0.0312 -0.0779 -0.1093
    1DIPC   D2A12426   7.576  20.392   4.492  0.2467 -0.4413  0.0550
    1DIPC   D3A12427   7.224  20.566   4.201  0.0929  0.0948  0.2948
    1DIPC   C4A12428   7.252  20.856   3.895 -0.1668  0.2313  0.0991
    1DIPC   C1B12429   7.938  20.050   5.208 -0.1463  0.3024  0.1126
    1DIPC   D2B12430   8.167  19.782   4.998 -0.2935  0.1314  0.0841
    1DIPC   D3B12431   8.172  20.008   4.633 -0.1173  0.0264  0.1188
    1DIPC   C4B12432   8.066  20.380   4.385 -0.1171 -0.0992 -0.0169
    1DIPC   NC312433  26.762  26.519   7.506  0.2199  0.0945 -0.0481
    1DIPC   PO412434  27.017  26.723   7.163  0.0855 -0.0914 -0.1951
    1DIPC   GL112435  26.895  26.683   6.728  0.0882 -0.0390  0.1949
    1DIPC   GL212436  26.992  26.464   6.619 -0.2010 -0.0869  0.4055
    1DIPC   C1A12437  26.559  26.957   6.661 -0.2488  0.0469  0.1276
    1DIPC   D2A12438  26.302  26.874   6.321  0.4028  0.2035  0.0735
    1DIPC   D3A12439  26.398  26.846   5.865  0.0004  0.2106  0.1302
    1DIPC   C4A12440  26.210  26.606   5.611  0.3562 -0.0139 -0.5261
    1DIPC   C1B12441  26.708  26.541   6.283  0.3856 -0.0381 -0.2081
    1DIPC   D2B12442  26.352  26.404   6.028  0.2120 -0.0859  0.1990
    1DIPC   D3B12443  26.050  26.103   5.883  0.0222  0.1657  0.1466
    1DIPC   C4B12444  25.676  26.071   5.984 -0.0415 -0.0331 -0.0254
    1DIPC   NC312445  26.023  18.364   6.167  0.0985 -0.0492  0.3255
    1DIPC   PO412446  26.176  17.940   6.211  0.2849  0.0092 -0.1801
    1DIPC   GL112447  25.868  17.956   5.802  0.0938 -0.0210  0.1280
    1DIPC   GL212448  25.617  17.730   5.649 -0.3233  0.0057  0.0446
    1DIPC   C1A12449  25.937  18.062   5.436  0.0908 -0.0400  0.2713
    1DIPC   D2A12450  25.795  17.862   5.078 -0.1602 -0.0018 -0.1150
    1DIPC   D3A12451  25.945  18.114   4.772  0.0315  0.0396 -0.2233
    1DIPC   C4A12452  25.926  18.128   4.297  0.2376  0.0828  0.0580
    1DIPC   C1B12453  25.954  17.520   5.410  0.3394 -0.0940 -0.0754
    1DIPC   D2B12454  26.043  17.466   5.047 -0.1196 -0.2432 -0.0969
    1DIPC   D3B12455  26.057  17.623   4.741 -0.0337  0.0453  0.0912
    1DIPC   C4B12456  26.326  17.503   4.386  0.0532 -0.1306 -0.3717
    1DIPC   NC312457  15.106   1.311   6.362  0.1527  0.1791  0.0496
    1DIPC   PO412458  15.199   0.949   6.140  0.0158 -0.1891  0.0968
    1DIPC   GL112459  14.947   0.729   5.795  0.3879 -0.2318  0.2706
    1DIPC   GL212460  15.028   0.334   5.826  0.0381  0.0047 -0.0686
    1DIPC   C1A12461  14.880   0.679   5.277  0.0837 -0.0746 -0.1016
    1DIPC   D2A12462  15.006   0.602   4.862  0.0469  0.0135  0.2793
    1DIPC   D3A12463  14.651   0.620   4.828 -0.0789 -0.2394 -0.0922
    1DIPC   C4A12464  14.525   0.961   5.024  0.1712 -0.0077  0.1150
    1DIPC   C1B12465  14.645   0.417   5.640  0.0107  0.0379 -0.0888
    1DIPC   D2B12466  14.460   0.399   5.255  0.4636 -0.3146  0.2669
    1DIPC   D3B12467  14.109   0.706   5.244  0.0193  0.0425  0.0969
    1DIPC   C4B12468  13.841   0.950   5.084 -0.0767  0.0199  0.0668
    1DIPC   NC312469  26.400  26.001   6.827 -0.1273  0.0106 -0.0644
    1DIPC   PO412470  25.980  26.152   6.929  0.0762  0.2909  0.1469
    1DIPC   GL112471  25.757  26.492   6.738 -0.0734 -0.1231  0.1330
    1DIPC   GL212472  25.793  26.308   6.441  0.0864 -0.1214 -0.1647
    1DIPC   C1A12473  25.331  26.403   6.506  0.2299  0.0743  0.3333
    1DIPC   D2A12474  24.906  26.500   6.510 -0.3175 -0.0132  0.1603
    1DIPC   D3A12475  24.989  26.298   6.143  0.0575  0.1351 -0.0534
    1DIPC   C4A12476  25.227  26.347   5.948  0.0274  0.0507  0.3363
    1DIPC   C1B12477  25.917  26.576   6.211 -0.0815  0.0989  0.0751
    1DIPC   D2B12478  25.887  27.061   6.071 -0.1235  0.1486 -0.2011
    1DIPC   D3B12479  26.195  27.293   5.748  0.1343 -0.2435 -0.1638
    1DIPC   C4B12480  26.399  27.095   5.417 -0.1946 -0.2754  0.0706
    1DIPC   NC312481  17.469   8.795   6.277  0.0639 -0.0072 -0.0760
    1DIPC   PO412482  17.389   9.206   6.334 -0.0108  0.0909  0.0494
    1DIPC   GL112483  17.440   9.149   5.872  0.2848  0.0810 -0.1228
    1DIPC   GL212484  17.424   9.399   5.614 -0.0033 -0.3485 -0.1533
    1DIPC   C1A12485  17.288   8.763   5.600 -0.3488  0.0122 -0.1289
    1DIPC   D2A12486  17.351   8.552   5.189 -0.0510 -0.1401  0.1473
    1DIPC   D3A12487  17.166   8.845   4.894 -0.1463 -0.0651 -0.0767
    1DIPC   C4A12488  16.774   9.108   4.893 -0.0432  0.2059 -0.2528
    1DIPC   C1B12489  17.341   9.843   5.386  0.2111 -0.0162 -0.3458
    1DIPC   D2B12490  17.519  10.121   5.687 -0.1547  0.1759 -0.0243
    1DIPC   D3B12491  17.171  10.295   5.605  0.0912  0.1367 -0.0600
    1DIPC   C4B12492  16.919  10.117   5.350  0.0612  0.1242 -0.0197
    1DIPC   NC312493  13.399   2.006   6.561 -0.0681 -0.0667  0.2254
    1DIPC   PO412494  13.191   1.779   6.341  0.1062 -0.0328  0.0192
    1DIPC   GL112495  13.217   1.497   5.950 -0.1256  0.2723  0.1280
    1DIPC   GL212496  13.022   1.666   5.673  0.1074  0.2232  0.2532
    1DIPC   C1A12497  12.997   1.188   5.726  0.1490 -0.0900  0.0857
    1DIPC   D2A12498  12.706   1.258   5.437 -0.2093 -0.0690 -0.4633
    1DIPC   D3A12499  12.675   1.191   5.044  0.1628 -0.3117 -0.1399
    1DIPC   C4A12500  12.252   1.510   4.993  0.1317  0.0888 -0.0188
    1DIPC   C1B12501  12.732   1.742   5.263 -0.1502  0.2504 -0.2940
    1DIPC   D2B12502  12.516   1.928   4.967  0.0695  0.1118  0.1348
    1DIPC   D3B12503  12.086   1.906   4.702 -0.4302  0.0387 -0.1856
    1DIPC   C4B12504  11.609   1.856   4.598  0.2417 -0.3600 -0.3372
    1DIPC   NC312505  27.708   9.875   6.748 -0.2598  0.2373 -0.0555
    1DIPC   PO412506  27.763   9.771   6.336  0.3131  0.0491 -0.1534
    1DIPC   GL112507  27.731   9.961   5.979  0.0775  0.2293 -0.2762
    1DIPC   GL212508  27.946  10.039   5.844  0.0061 -0.1515  0.2324
    1DIPC   C1A12509  27.485  10.091   5.489 -0.1874 -0.3506  0.2047
    1DIPC   D2A12510  27.452  10.020   4.973 -0.3331  0.3539  0.5098
    1DIPC   D3A12511  27.155   9.966   4.710  0.1247  0.1507 -0.1061
    1DIPC   C4A12512  26.985   9.543   4.847  0.3568 -0.0553  0.0651
    1DIPC   C1B12513  28.022   9.928   5.422  0.0641  0.0696 -0.2294
    1DIPC   D2B12514  28.179   9.870   5.054  0.0409 -0.5985 -0.0913
    1DIPC   D3B12515  27.979   9.949   4.702 -0.0515  0.1685 -0.2309
    1DIPC   C4B12516  28.012  10.402   4.570 -0.0426  0.0628  0.0660
    1DIPC   NC312517  27.273  24.038   6.711  0.1845 -0.0105  0.3203
    1DIPC   PO412518  27.394  24.311   6.363  0.0495  0.0879  0.1943
    1DIPC   GL112519  27.512  24.376   5.923 -0.1384  0.0524  0.0361
    1DIPC   GL212520  27.795  24.494   5.899  0.0169 -0.0057  0.3140
    1DIPC   C1A12521  27.338  24.533   5.544 -0.0955 -0.4859  0.1179
    1DIPC   D2A12522  26.877  24.522   5.356 -0.0150  0.0529  0.0207
    1DIPC   D3A12523  26.461  24.465   5.322  0.2599  0.3553  0.0443
    1DIPC   C4A12524  26.151  24.414   5.554 -0.0407  0.0981 -0.1190
    1DIPC   C1B12525  27.630  24.142   5.542 -0.2272 -0.2053  0.4311
    1DIPC   D2B12526  27.885  24.069   5.233  0.2495  0.0503 -0.0921
    1DIPC   D3B12527  27.991  23.705   5.390 -0.0114 -0.2947  0.0059
    1DIPC   C4B12528  27.821  23.638   5.828  0.1149  0.2164  0.1825
    1DIPC   NC312529  16.593  28.455   6.436 -0.1929  0.0662 -0.1484
    1DIPC   PO412530  16.421  28.776   6.363  0.3118 -0.1293  0.3773
    1DIPC   GL112531  16.829  28.733   6.106 -0.2301 -0.1219  0.3231
    1DIPC   GL212532  17.151  28.584   6.146  0.1727 -0.2311  0.1971
    1DIPC   C1A12533  16.984  28.733   5.691  0.0424 -0.2937  0.1440
    1DIPC   D2A12534  16.979  28.899   5.291 -0.0097 -0.1190 -0.0800
    1DIPC   D3A12535  17.519  28.929   5.250  0.3037 -0.2085  0.1293
    1DIPC   C4A12536  17.750  28.790   5.550 -0.1197 -0.0613  0.1459
    1DIPC   C1B12537  17.610  28.629   5.992  0.4087  0.1464 -0.0215
    1DIPC   D2B12538  17.943  28.379   5.905  0.1967  0.3094 -0.0646
    1DIPC   D3B12539  18.110  28.122   6.284 -0.1984  0.2603 -0.0114
    1DIPC   C4B12540  18.243  27.668   6.251 -0.0840  0.1816  0.0526
    1DIPC   NC312541  27.988   0.390   7.525 -0.0485 -0.2722  0.2414
    1DIPC   PO412542  27.718   0.335   7.184  0.3934  0.0671 -0.0729
    1DIPC   GL112543  27.550   0.438   6.799  0.0295 -0.1920  0.2483
    1DIPC   GL212544  27.346   0.639   6.844 -0.0481 -0.1141 -0.3597
    1DIPC   C1A12545  27.590   0.471   6.344  0.0797  0.0240  0.1015
    1DIPC   D2A12546  27.934   0.528   6.016  0.0891  0.0456  0.2072
    1DIPC   D3A12547  27.872   0.948   6.048  0.1421  0.0032 -0.0867
    1DIPC   C4A12548  28.160   1.219   5.830 -0.1686  0.3180 -0.0438
    1DIPC   C1B12549  27.603   0.934   6.596 -0.1232 -0.1482  0.3483
    1DIPC   D2B12550  28.041   1.100   6.519 -0.0471 -0.1150  0.1880
    1DIPC   D3B12551  28.313   0.760   6.346  0.1009 -0.0061  0.1077
    1DIPC   C4B12552  28.386   0.676   5.823 -0.4362  0.1662  0.1925
    1DIPC   NC312553  17.835  11.044   6.496  0.0934  0.1450  0.0434
    1DIPC   PO412554  17.488  11.184   6.545  0.0013  0.1278  0.0240
    1DIPC   GL112555  17.448  11.338   6.137  0.0114 -0.0630  0.1050
    1DIPC   GL212556  17.258  11.572   6.125 -0.0613  0.0037 -0.2782
    1DIPC   C1A12557  17.658  11.255   5.784  0.0701  0.1551  0.0480
    1DIPC   D2A12558  17.502  11.395   5.375 -0.1956 -0.3721 -0.0604
    1DIPC   D3A12559  17.145  11.303   5.708  0.1822 -0.0603  0.1852
    1DIPC   C4A12560  17.069  10.893   5.714 -0.0971 -0.0457 -0.2916
    1DIPC   C1B12561  17.152  11.802   5.722 -0.0506  0.2197  0.0345
    1DIPC   D2B12562  17.001  11.622   5.319 -0.2189  0.1119 -0.0747
    1DIPC   D3B12563  17.303  11.612   5.005  0.2707 -0.4097 -0.2724
    1DIPC   C4B12564  17.458  11.930   4.814  0.1582  0.1147 -0.1124
    1DIPC   NC312565  21.456  17.155   6.101 -0.1843 -0.0568  0.2386
    1DIPC   PO412566  21.960  17.323   5.921 -0.1038 -0.0495 -0.0642
    1DIPC   GL112567  22.113  17.325   5.516  0.2975  0.1470 -0.1238
    1DIPC   GL212568  21.951  17.071   5.411  0.0437  0.3142  0.1729
    1DIPC   C1A12569  22.110  17.554   5.030 -0.0638  0.0867  0.2478
    1DIPC   D2A12570  21.948  17.723   4.566 -0.1566 -0.0427  0.0076
    1DIPC   D3A12571  21.811  17.659   4.106  0.0260 -0.0169  0.2870
    1DIPC   C4A12572  21.418  17.471   3.952  0.1639  0.2796 -0.3268
    1DIPC   C1B12573  21.717  17.285   5.197  0.0329 -0.0541 -0.1565
    1DIPC   D2B12574  21.655  17.483   4.866  0.1353 -0.2708 -0.0095
    1DIPC   D3B12575  21.368  17.574   4.428  0.0945  0.0568 -0.0271
    1DIPC   C4B12576  21.301  17.112   4.265  0.1332 -0.1778 -0.0602
    1DIPC   NC312577   7.273   4.791   6.986  0.3332 -0.1961 -0.0423
    1DIPC   PO412578   7.673   4.985   6.737 -0.1954  0.2329 -0.1983
    1DIPC   GL112579   7.661   4.926   6.287  0.0837  0.2050  0.0761
    1DIPC   GL212580   7.968   4.814   6.217  0.0775 -0.3173 -0.0629
    1DIPC   C1A12581   7.358   4.911   6.019 -0.0185 -0.1360  0.2268
    1DIPC   D2A12582   6.904   4.816   5.688  0.1230 -0.4806 -0.1076
    1DIPC   D3A12583   6.588   5.106   5.846 -0.0114  0.1191  0.1844
    1DIPC   C4A12584   6.225   5.111   5.516 -0.1669  0.1469 -0.2196
    1DIPC   C1B12585   7.935   4.838   5.819  0.0709 -0.0352 -0.4654
    1DIPC   D2B12586   8.034   4.731   5.450  0.4609 -0.2595  0.1621
    1DIPC   D3B12587   7.803   4.968   5.191 -0.1309 -0.3554 -0.0219
    1DIPC   C4B12588   7.405   4.915   5.211 -0.4583 -0.2402  0.0207
    1DIPC   NC312589  23.767   2.019   7.091 -0.1075 -0.0631 -0.4763
    1DIPC   PO412590  23.384   1.932   6.829  0.2713  0.0148 -0.1834
    1DIPC   GL112591  23.325   1.878   6.369  0.0099 -0.1943  0.3391
    1DIPC   GL212592  23.658   1.905   6.265  0.4236  0.0159 -0.1496
    1DIPC   C1A12593  23.195   1.877   5.921  0.0930  0.4308  0.2685
    1DIPC   D2A12594  23.610   1.910   5.684 -0.2356 -0.4878  0.1152
    1DIPC   D3A12595  23.937   1.985   5.339 -0.0837 -0.0486 -0.1895
    1DIPC   C4A12596  24.040   1.916   4.874  0.1819 -0.2955  0.3040
    1DIPC   C1B12597  23.922   1.624   5.970 -0.2480  0.0625 -0.2822
    1DIPC   D2B12598  23.813   1.467   5.514  0.1160 -0.4364 -0.4158
    1DIPC   D3B12599  24.196   1.332   5.678  0.2326 -0.0542 -0.1469
    1DIPC   C4B12600  24.209   1.227   6.125  0.0172 -0.0110  0.0024
    1DIPC   NC312601  11.818   4.839   6.167 -0.0254 -0.0900 -0.0233
    1DIPC   PO412602  12.081   5.233   6.060  0.1957  0.1565 -0.3571
    1DIPC   GL112603  12.335   4.968   5.832  0.0745  0.0146 -0.0492
    1DIPC   GL212604  12.115   4.682   5.757  0.0230 -0.2194 -0.0795
    1DIPC   C1A12605  12.654   4.532   5.792 -0.1285  0.2345 -0.2572
    1DIPC   D2A12606  12.770   4.199   5.484 -0.0543 -0.3940 -0.1263
    1DIPC   D3A12607  12.708   4.285   5.133 -0.2826 -0.0620 -0.1850
    1DIPC   C4A12608  12.974   4.107   4.924  0.2818 -0.3008  0.1586
    1DIPC   C1B12609  12.336   4.439   5.426 -0.2301 -0.1030 -0.3092
    1DIPC   D2B12610  12.288   4.044   5.202 -0.0204 -0.1474 -0.1395
    1DIPC   D3B12611  12.532   4.060   4.700 -0.0500  0.0131 -0.2417
    1DIPC   C4B12612  12.658   4.376   4.619 -0.0922  0.2112 -0.1574
    1DIPC   NC312613  21.302   5.181   6.355 -0.0091 -0.0272  0.1642
    1DIPC   PO412614  20.906   4.954   6.531 -0.0309 -0.0334  0.0932
    1DIPC   GL112615  20.957   4.933   6.042 -0.1367 -0.2270 -0.1809
    1DIPC   GL212616  21.262   4.723   5.950 -0.0050 -0.1609 -0.3330
    1DIPC   C1A12617  20.903   5.013   5.654 -0.1488  0.1105  0.4382
    1DIPC   D2A12618  20.615   4.968   5.281  0.2207  0.1583  0.0962
    1DIPC   D3A12619  20.403   4.823   5.665 -0.2044  0.0584  0.1391
    1DIPC   C4A12620  20.061   5.016   5.832  0.1914 -0.0041 -0.1894
    1DIPC   C1B12621  21.308   4.439   5.701  0.0880  0.0948 -0.1651
    1DIPC   D2B12622  21.298   4.378   5.281  0.0352 -0.0727 -0.1790
    1DIPC   D3B12623  21.274   4.767   5.251  0.1100 -0.0825 -0.0494
    1DIPC   C4B12624  21.346   5.099   5.485  0.0828  0.4194  0.0132
    1DIPC   NC312625  28.763  26.242   6.835  0.5297 -0.0998  0.0591
    1DIPC   PO412626  28.831  26.401   6.431  0.4162 -0.1143 -0.0663
    1DIPC   GL112627  28.806  26.255   6.050 -0.0336  0.0278  0.3695
    1DIPC   GL212628  29.019  26.372   5.819 -0.0577 -0.0328 -0.0104
    1DIPC   C1A12629  28.582  26.155   5.657  0.0323  0.1537 -0.2200
    1DIPC   D2A12630  28.310  26.156   5.275  0.0040  0.0985  0.0704
    1DIPC   D3A12631  28.006  26.424   5.051 -0.0626  0.2563 -0.0056
    1DIPC   C4A12632  27.950  26.807   5.089 -0.0386  0.1123  0.1717
    1DIPC   C1B12633  29.112  26.421   5.383 -0.1406  0.0513 -0.1948
    1DIPC   D2B12634  29.025  26.579   4.842 -0.0110  0.0154  0.1229
    1DIPC   D3B12635  28.944  27.005   5.036  0.0113  0.0264  0.0778
    1DIPC   C4B12636  29.042  26.940   5.425 -0.3320 -0.3350 -0.0723
    1DIPC   NC312637   8.197  21.791   6.039 -0.1209 -0.2304  0.1261
    1DIPC   PO412638   7.845  21.815   5.807  0.1057  0.4205 -0.1716
    1DIPC   GL112639   7.655  22.076   5.558  0.0594 -0.0620  0.0943
    1DIPC   GL212640   7.804  22.062   5.211  0.0239  0.1290 -0.2008
    1DIPC   C1A12641   7.399  22.413   5.332  0.0835  0.0933 -0.2273
    1DIPC   D2A12642   7.353  22.525   4.972  0.1025  0.2301  0.2110
    1DIPC   D3A12643   7.131  22.888   5.147  0.0784  0.0784  0.0571
    1DIPC   C4A12644   7.030  22.761   5.549  0.0939 -0.2638 -0.2999
    1DIPC   C1B12645   7.638  22.095   4.807  0.0473  0.2931 -0.0743
    1DIPC   D2B12646   7.418  22.259   4.529 -0.0903 -0.1668  0.0911
    1DIPC   D3B12647   7.520  22.765   4.482  0.2510 -0.0398  0.0907
    1DIPC   C4B12648   7.360  23.070   4.692 -0.1187 -0.2256 -0.0627
    1DIPC   NC312649   6.743   9.527   6.711 -0.1507 -0.1109 -0.1007
    1DIPC   PO412650   6.716   9.795   6.325 -0.2421 -0.0069  0.0039
    1DIPC   GL112651   6.860   9.907   5.915  0.0721 -0.2757 -0.2079
    1DIPC   GL212652   7.040   9.660   5.811 -0.0214  0.2101  0.1784
    1DIPC   C1A12653   6.992   9.955   5.417  0.1704  0.1515  0.2214
    1DIPC   D2A12654   7.080   9.730   5.053 -0.0996  0.1194 -0.3634
    1DIPC   D3A12655   6.798   9.697   4.662  0.2853 -0.1733 -0.1948
    1DIPC   C4A12656   6.549  10.022   4.566 -0.1896 -0.2738 -0.0013
    1DIPC   C1B12657   7.234   9.404   5.430 -0.1161  0.0559 -0.1313
    1DIPC   D2B12658   7.305   9.304   5.009 -0.1907 -0.1747  0.0528
    1DIPC   D3B12659   7.328   9.130   4.565  0.1463  0.1525 -0.0374
    1DIPC   C4B12660   7.054   9.234   4.275 -0.4681 -0.0521 -0.2623
    1DIPC   NC312661  22.610   0.515   7.166  0.2824  0.1986  0.0544
    1DIPC   PO412662  22.375   0.181   7.070 -0.2520  0.0450 -0.1312
    1DIPC   GL112663  22.669   0.264   6.774 -0.1852  0.0698  0.1326
    1DIPC   GL212664  22.659  30.345   6.491 -0.0424  0.1350 -0.0312
    1DIPC   C1A12665  23.052   0.488   6.395 -0.0572 -0.0509 -0.1258
    1DIPC   D2A12666  23.126   0.815   6.041 -0.2814  0.1720  0.0112
    1DIPC   D3A12667  22.769   0.843   5.920  0.1930 -0.0286  0.1250
    1DIPC   C4A12668  22.665   0.788   5.440 -0.2782 -0.0377 -0.1277
    1DIPC   C1B12669  22.614   0.286   6.106 -0.2765  0.0552  0.1379
    1DIPC   D2B12670  22.782   0.381   5.677  0.0366 -0.1122  0.0580
    1DIPC   D3B12671  23.254   0.445   5.565 -0.2076 -0.0868 -0.0330
    1DIPC   C4B12672  23.637   0.730   5.603 -0.0982  0.2514 -0.0237
    1DIPC   NC312673  25.087  18.920   6.003  0.0670  0.5517  0.1451
    1DIPC   PO412674  25.152  18.474   5.985 -0.0735 -0.2408  0.0836
    1DIPC   GL112675  24.973  18.211   5.658  0.1302  0.1780 -0.1522
    1DIPC   GL212676  25.063  17.901   5.540  0.0780 -0.0970 -0.1162
    1DIPC   C1A12677  24.923  18.412   5.356 -0.0877 -0.0266  0.1320
    1DIPC   D2A12678  24.931  18.462   4.914 -0.0446 -0.3159  0.2547
    1DIPC   D3A12679  24.735  18.753   4.697  0.0444 -0.2514  0.1372
    1DIPC   C4A12680  24.880  19.187   4.602  0.0627  0.2553 -0.2379
    1DIPC   C1B12681  25.349  17.796   5.222  0.0199  0.0856 -0.1800
    1DIPC   D2B12682  25.515  17.479   4.991 -0.0656  0.1038 -0.2377
    1DIPC   D3B12683  25.483  17.813   4.728 -0.3101 -0.2289 -0.0177
    1DIPC   C4B12684  25.712  17.656   4.427  0.0345  0.1314  0.0465
    1DIPC   NC312685  13.649  22.565   6.338 -0.2361 -0.2088 -0.2778
    1DIPC   PO412686  13.236  22.776   6.392  0.0138  0.3539  0.2938
    1DIPC   GL112687  13.066  22.753   5.965 -0.0636  0.2275  0.0483
    1DIPC   GL212688  12.898  22.438   5.800 -0.0044 -0.2960 -0.3029
    1DIPC   C1A12689  13.310  22.753   5.640  0.0621 -0.2082  0.3944
    1DIPC   D2A12690  13.373  22.563   5.236  0.1794  0.0378  0.0734
    1DIPC   D3A12691  13.637  22.135   5.485  0.1728 -0.0362 -0.2729
    1DIPC   C4A12692  14.085  22.317   5.533  0.3827  0.4491  0.1742
    1DIPC   C1B12693  13.185  22.291   5.539  0.2337  0.0310 -0.0317
    1DIPC   D2B12694  13.225  22.078   5.081  0.3450 -0.1051  0.0348
    1DIPC   D3B12695  13.106  21.724   4.945 -0.2121  0.0337  0.0220
    1DIPC   C4B12696  13.140  21.490   4.509  0.0011  0.1095  0.0350
    1DIPC   NC312697  27.476  25.214   7.184 -0.2334  0.0054  0.0677
    1DIPC   PO412698  27.679  25.475   6.887 -0.2445 -0.1023 -0.1484
    1DIPC   GL112699  27.512  25.781   6.619 -0.2590  0.1267 -0.1277
    1DIPC   GL212700  27.559  25.796   6.319 -0.0055 -0.0181  0.0485
    1DIPC   C1A12701  27.224  26.104   6.362 -0.2939  0.0878  0.0040
    1DIPC   D2A12702  26.966  26.123   5.947 -0.1566 -0.0092 -0.1956
    1DIPC   D3A12703  27.004  25.707   5.860 -0.0024  0.2233  0.1275
    1DIPC   C4A12704  26.973  25.513   5.511  0.0030 -0.0137  0.0547
    1DIPC   C1B12705  27.554  26.064   6.002  0.0861  0.1800 -0.2241
    1DIPC   D2B12706  27.442  26.533   5.874 -0.2078  0.2080 -0.3099
    1DIPC   D3B12707  27.816  26.784   5.722 -0.1463 -0.0082 -0.1827
    1DIPC   C4B12708  28.165  26.552   5.540 -0.2060  0.1063  0.3009
    1DIPC   NC312709   0.263  10.951   7.080 -0.0595  0.0526 -0.2967
    1DIPC   PO412710   0.053  10.601   7.169 -0.2019 -0.2407  0.2734
    1DIPC   GL112711   0.047  10.693   6.736 -0.0227  0.0155 -0.2473
    1DIPC   GL212712  30.260  10.544   6.464  0.0534  0.1365 -0.1202
    1DIPC   C1A12713   0.290  10.769   6.342  0.0653  0.0013  0.2009
    1DIPC   D2A12714   0.700  10.670   6.343  0.1830  0.1756 -0.5158
    1DIPC   D3A12715   0.364  10.281   6.266  0.0949  0.2138 -0.0572
    1DIPC   C4A12716   0.365   9.972   5.933 -0.3207 -0.1791  0.0414
    1DIPC   C1B12717  29.989  10.323   6.121 -0.3579  0.2021 -0.2110
    1DIPC   D2B12718  30.165  10.046   5.821 -0.1574 -0.2330 -0.0443
    1DIPC   D3B12719  30.009   9.985   5.407  0.1675 -0.0529 -0.2424
    1DIPC   C4B12720  30.140   9.533   5.207 -0.0275  0.0580 -0.2709
    1DIPC   NC312721  12.700  27.580   6.823  0.3861 -0.3888 -0.1049
    1DIPC   PO412722  12.921  27.789   6.501 -0.3900 -0.1255  0.0756
    1DIPC   GL112723  13.275  27.646   6.342 -0.1400  0.0463 -0.1812
    1DIPC   GL212724  13.247  27.889   6.055  0.0658 -0.1420  0.1551
    1DIPC   C1A12725  13.373  27.362   5.945 -0.0160  0.0007 -0.0500
    1DIPC   D2A12726  13.428  27.324   5.550 -0.0071  0.0866 -0.1534
    1DIPC   D3A12727  13.710  27.240   5.113  0.3712 -0.2649 -0.1614
    1DIPC   C4A12728  14.071  27.151   5.116 -0.0094 -0.0086 -0.2814
    1DIPC   C1B12729  13.321  27.778   5.693 -0.2725 -0.1081  0.0345
    1DIPC   D2B12730  13.314  28.035   5.215  0.2339 -0.0078 -0.1134
    1DIPC   D3B12731  13.393  27.608   5.031 -0.0900  0.2494  0.1357
    1DIPC   C4B12732  13.238  27.206   4.967 -0.0258 -0.0927  0.4210
    1DIPC   NC312733   4.310  28.547   7.236  0.1696 -0.0431  0.1294
    1DIPC   PO412734   4.287  28.976   7.020  0.2599  0.1664 -0.3410
    1DIPC   GL112735   4.116  29.009   6.684  0.1568  0.2347  0.2399
    1DIPC   GL212736   4.167  29.338   6.668  0.3631  0.0555 -0.2274
    1DIPC   C1A12737   3.813  29.053   6.434  0.1645  0.0197  0.3289
    1DIPC   D2A12738   4.045  28.998   6.097  0.1351  0.2687 -0.1024
    1DIPC   D3A12739   4.074  29.233   5.760 -0.2471  0.1290 -0.0304
    1DIPC   C4A12740   3.779  29.406   5.635  0.2404  0.1437 -0.0850
    1DIPC   C1B12741   4.448  29.420   6.243 -0.3173 -0.0350  0.1137
    1DIPC   D2B12742   4.571  29.072   5.928  0.1195  0.1479 -0.3591
    1DIPC   D3B12743   4.742  28.752   5.849  0.0099 -0.3000  0.1143
    1DIPC   C4B12744   5.126  28.691   5.986 -0.1367 -0.1834 -0.0673
    1DIPC   NC312745   7.096  27.905   7.008  0.0848 -0.1830 -0.0093
    1DIPC   PO412746   6.725  28.275   6.838 -0.2514  0.0996 -0.0804
    1DIPC   GL112747   6.602  28.028   6.337 -0.0110  0.4588  0.1539
    1DIPC   GL212748   6.685  28.359   6.256 -0.2448  0.0528  0.2928
    1DIPC   C1A12749   6.595  27.676   6.172 -0.1429 -0.2402 -0.1615
    1DIPC   D2A12750   6.422  27.554   5.820 -0.2461  0.3353  0.2178
    1DIPC   D3A12751   6.480  27.775   5.471  0.1916 -0.2908 -0.0695
    1DIPC   C4A12752   6.906  27.912   5.268  0.1594 -0.0670  0.1050
    1DIPC   C1B12753   6.689  28.495   5.802  0.0864 -0.1766  0.1801
    1DIPC   D2B12754   6.594  28.727   5.408  0.0665  0.0418 -0.0181
    1DIPC   D3B12755   7.056  28.886   5.249  0.2575 -0.2231  0.1757
    1DIPC   C4B12756   7.101  28.859   4.860  0.2460  0.1887  0.4294
    1DIPC   NC312757  22.472  27.194   6.736 -0.0809  0.3102  0.1027
    1DIPC   PO412758  22.895  27.289   6.574  0.0345  0.2075  0.3804
    1DIPC   GL112759  23.039  27.426   6.228  0.3552 -0.3045 -0.0347
    1DIPC   GL212760  22.885  27.560   6.000  0.2489  0.1821  0.2552
    1DIPC   C1A12761  23.391  27.363   5.937 -0.0360 -0.0953  0.2329
    1DIPC   D2A12762  23.735  27.220   5.674 -0.1111 -0.1355 -0.3088
    1DIPC   D3A12763  23.941  27.088   5.289 -0.4174 -0.1349  0.0390
    1DIPC   C4A12764  24.353  27.140   5.304  0.0269 -0.2772 -0.0025
    1DIPC   C1B12765  23.194  27.866   5.983  0.0930 -0.0930 -0.0920
    1DIPC   D2B12766  23.334  28.222   5.806 -0.0627  0.3968  0.1438
    1DIPC   D3B12767  23.531  28.008   5.581  0.1184  0.0792 -0.1866
    1DIPC   C4B12768  23.692  27.960   5.185 -0.1881  0.4398  0.2000
    1DIPC   NC312769   9.313   5.717   6.572 -0.0197 -0.0409 -0.4506
    1DIPC   PO412770   9.635   5.426   6.525  0.5329  0.0240 -0.0225
    1DIPC   GL112771   9.595   5.447   6.124 -0.1465  0.1378  0.0304
    1DIPC   GL212772   9.340   5.566   6.092  0.2793 -0.1236 -0.0141
    1DIPC   C1A12773   9.793   5.555   5.777 -0.1235  0.3488 -0.0540
    1DIPC   D2A12774  10.064   5.640   5.318  0.1039 -0.0991 -0.3040
    1DIPC   D3A12775  10.271   5.653   4.984 -0.4131 -0.1590 -0.0721
    1DIPC   C4A12776  10.319   6.094   4.797  0.0892 -0.0418 -0.2684
    1DIPC   C1B12777   9.232   5.059   5.887  0.0303  0.1015  0.3673
    1DIPC   D2B12778   8.953   4.804   5.801  0.1662  0.2058 -0.0628
    1DIPC   D3B12779   8.920   4.648   5.333  0.1399 -0.0294 -0.0416
    1DIPC   C4B12780   9.080   4.785   4.953  0.0710 -0.2486 -0.0923
    1DIPC   NC312781  23.568  24.100   5.925  0.1668  0.1146  0.0102
    1DIPC   PO412782  23.644  24.512   6.099  0.1422  0.0908  0.0896
    1DIPC   GL112783  23.635  24.634   5.662 -0.2085  0.1135  0.1499
    1DIPC   GL212784  23.374  24.473   5.471  0.2560 -0.0967 -0.1593
    1DIPC   C1A12785  23.449  24.979   5.390 -0.1964 -0.3629 -0.2199
    1DIPC   D2A12786  23.482  25.063   4.993 -0.1766 -0.0490 -0.2761
    1DIPC   D3A12787  23.894  25.278   4.885 -0.0468 -0.2334 -0.5319
    1DIPC   C4A12788  23.830  25.801   4.936 -0.0834  0.1777  0.2504
    1DIPC   C1B12789  23.270  24.622   4.929  0.2779 -0.2431 -0.1641
    1DIPC   D2B12790  23.193  24.636   4.526 -0.0197  0.3759 -0.2833
    1DIPC   D3B12791  22.785  24.480   4.603 -0.1924 -0.3039 -0.0788
    1DIPC   C4B12792  22.606  24.086   4.371 -0.4107 -0.1495  0.4440
    1DIPC   NC312793  22.773  18.212   5.701 -0.1853 -0.2863 -0.2700
    1DIPC   PO412794  22.307  18.147   5.728  0.2032 -0.1286 -0.0291
    1DIPC   GL112795  22.545  18.096   5.297 -0.1409  0.0009 -0.2628
    1DIPC   GL212796  22.868  18.123   5.227  0.0531 -0.0775  0.0047
    1DIPC   C1A12797  22.343  17.965   4.867 -0.2042 -0.1173  0.3584
    1DIPC   D2A12798  21.990  18.168   4.747  0.1920  0.1997  0.0710
    1DIPC   D3A12799  22.057  18.659   4.650 -0.1764 -0.0892 -0.0520
    1DIPC   C4A12800  21.914  18.694   4.229 -0.0528  0.1161  0.0090
    1DIPC   C1B12801  22.790  18.392   4.878 -0.2264  0.0106  0.1806
    1DIPC   D2B12802  22.881  18.501   4.428 -0.3009 -0.0157 -0.0255
    1DIPC   D3B12803  22.532  18.651   4.589  0.0804  0.1885  0.2994
    1DIPC   C4B12804  22.328  18.916   4.223  0.0412  0.0358 -0.0705
    1DIPC   NC312805  15.312   5.013   6.129 -0.0556  0.1155 -0.2389
    1DIPC   PO412806  15.110   5.371   5.856 -0.2184 -0.0801  0.0017
    1DIPC   GL112807  15.253   5.451   5.452  0.0674 -0.0404  0.1611
    1DIPC   GL212808  15.219   5.698   5.347 -0.0382 -0.0622 -0.1431
    1DIPC   C1A12809  15.419   5.236   5.063  0.0212 -0.1048 -0.0901
    1DIPC   D2A12810  15.593   5.161   4.694  0.2225 -0.0571  0.0945
    1DIPC   D3A12811  15.995   4.999   4.668 -0.3020 -0.0052 -0.0300
    1DIPC   C4A12812  16.309   5.320   4.853  0.0902 -0.0142 -0.0466
    1DIPC   C1B12813  14.993   5.509   5.048  0.2332  0.3026  0.0822
    1DIPC   D2B12814  14.609   5.284   5.034  0.0791  0.0075  0.4138
    1DIPC   D3B12815  14.630   5.005   4.580 -0.2640 -0.0306  0.0969
    1DIPC   C4B12816  14.560   5.068   4.123 -0.1025  0.2599  0.0280
    1DIPC   NC312817  11.434  18.606   6.185  0.1854  0.2983  0.0423
    1DIPC   PO412818  11.239  18.866   5.838  0.0506  0.0064 -0.1291
    1DIPC   GL112819  11.247  18.535   5.374 -0.0282  0.1735 -0.0274
    1DIPC   GL212820  11.210  18.186   5.363  0.2351  0.2862 -0.0906
    1DIPC   C1A12821  11.359  18.479   4.986  0.1393 -0.2167  0.1494
    1DIPC   D2A12822  11.148  18.224   4.599 -0.1606  0.1965 -0.4575
    1DIPC   D3A12823  10.696  18.087   4.762 -0.1285  0.1280 -0.3163
    1DIPC   C4A12824  10.388  18.018   4.513  0.1716  0.1606 -0.1335
    1DIPC   C1B12825  11.269  17.903   5.006 -0.2450  0.1974 -0.2163
    1DIPC   D2B12826  11.395  17.742   4.583 -0.0449  0.2135  0.2327
    1DIPC   D3B12827  11.113  17.451   4.729  0.0688 -0.2244 -0.1347
    1DIPC   C4B12828  11.190  17.357   5.143 -0.0371 -0.2082  0.2386
    1DIPC   NC312829   1.349   6.835   6.147  0.0733  0.0765 -0.0259
    1DIPC   PO412830   1.628   6.582   6.173  0.1910  0.0617 -0.2893
    1DIPC   GL112831   1.789   7.048   6.167  0.3235  0.0465  0.1949
    1DIPC   GL212832   2.156   7.222   6.265  0.0047  0.2614  0.1508
    1DIPC   C1A12833   1.905   7.403   5.812 -0.1989  0.0662 -0.2030
    1DIPC   D2A12834   2.239   7.691   5.651 -0.0008 -0.2693 -0.0104
    1DIPC   D3A12835   2.297   7.710   5.198 -0.3840 -0.1881 -0.1429
    1DIPC   C4A12836   2.062   7.627   4.908  0.2320 -0.1915  0.3008
    1DIPC   C1B12837   2.335   7.225   5.880  0.1680  0.2596  0.0135
    1DIPC   D2B12838   2.217   7.227   5.406  0.1405 -0.0556  0.3053
    1DIPC   D3B12839   2.403   7.306   4.929  0.1113  0.1237 -0.2314
    1DIPC   C4B12840   2.105   7.052   4.661 -0.0179 -0.1881 -0.3319
    1DIPC   NC312841  25.599  24.210   6.703  0.0590 -0.0009 -0.4014
    1DIPC   PO412842  25.456  23.973   6.377 -0.3070  0.3316 -0.0319
    1DIPC   GL112843  25.428  24.304   6.036 -0.0034 -0.0885  0.3209
    1DIPC   GL212844  25.087  24.198   5.854 -0.0424  0.1599 -0.0730
    1DIPC   C1A12845  25.219  24.584   5.639  0.0057 -0.2468 -0.1114
    1DIPC   D2A12846  25.006  24.655   5.261 -0.2855  0.1125  0.0081
    1DIPC   D3A12847  25.283  24.624   4.940  0.2530  0.1323 -0.1351
    1DIPC   C4A12848  25.622  25.133   4.845  0.0838 -0.0013 -0.4931
    1DIPC   C1B12849  25.257  24.156   5.337  0.1042  0.2478  0.1533
    1DIPC   D2B12850  24.985  24.235   4.936 -0.1520 -0.0564  0.1132
    1DIPC   D3B12851  25.274  24.078   4.668 -0.0302 -0.0013  0.0570
    1DIPC   C4B12852  25.218  23.602   4.753  0.1557  0.2150 -0.0079
    1DIPC   NC312853  12.753   0.749   6.478 -0.0275 -0.1295 -0.1507
    1DIPC   PO412854  13.128   0.800   6.314  0.0329  0.1657  0.0481
    1DIPC   GL112855  13.156   0.753   5.911 -0.3842  0.2489 -0.1078
    1DIPC   GL212856  13.422   0.965   5.777 -0.3105 -0.1688  0.0890
    1DIPC   C1A12857  13.204   0.374   5.644 -0.1876 -0.0625  0.2366
    1DIPC   D2A12858  13.435   0.275   5.254  0.1388  0.0667 -0.0066
    1DIPC   D3A12859  13.587   0.519   4.945  0.0865  0.2013  0.3272
    1DIPC   C4A12860  13.284   0.756   4.852 -0.2571  0.1134 -0.2779
    1DIPC   C1B12861  13.330   1.180   5.329 -0.1363  0.1404 -0.2038
    1DIPC   D2B12862  13.452   1.680   5.188  0.2262 -0.0552 -0.1929
    1DIPC   D3B12863  13.553   1.777   5.625 -0.2565  0.2914  0.3814
    1DIPC   C4B12864  13.968   1.814   5.628  0.1357  0.0016  0.1452
    1DIPC   NC312865  10.812  24.646   6.394 -0.1391  0.0524 -0.5375
    1DIPC   PO412866  10.665  24.397   6.237 -0.2839  0.1154  0.0339
    1DIPC   GL112867  10.651  24.307   5.844  0.2472  0.1329  0.3590
    1DIPC   GL212868  10.516  24.092   5.583 -0.2679  0.1409 -0.0173
    1DIPC   C1A12869  10.707  24.560   5.421  0.0200 -0.3034 -0.3881
    1DIPC   D2A12870  11.011  24.820   5.189  0.2956 -0.4373  0.0189
    1DIPC   D3A12871  10.692  24.937   5.014 -0.1720  0.0442  0.0528
    1DIPC   C4A12872  10.518  25.338   4.803 -0.3431  0.1501  0.0139
    1DIPC   C1B12873  10.608  23.828   5.219  0.0330 -0.2439 -0.3671
    1DIPC   D2B12874  10.773  23.932   4.804 -0.2496 -0.1659 -0.1759
    1DIPC   D3B12875  10.434  24.104   4.564  0.2258 -0.0773  0.2778
    1DIPC   C4B12876  10.407  23.977   4.069 -0.1291  0.0033  0.1703
    1DIPC   NC312877  21.536  19.543   5.798  0.1292  0.1885  0.2408
    1DIPC   PO412878  21.861  19.168   5.689 -0.1243  0.2429  0.2728
    1DIPC   GL112879  21.819  19.483   5.405 -0.1284 -0.0549 -0.3159
    1DIPC   GL212880  21.597  19.333   5.182  0.1486  0.0871 -0.1786
    1DIPC   C1A12881  21.898  19.845   5.071  0.0223  0.0158 -0.0825
    1DIPC   D2A12882  22.021  20.262   4.877 -0.1167  0.0319  0.0535
    1DIPC   D3A12883  21.607  20.377   4.679  0.0629  0.0649 -0.1132
    1DIPC   C4A12884  21.482  20.840   4.453  0.3400  0.2376 -0.1248
    1DIPC   C1B12885  21.910  19.404   4.796 -0.2606 -0.2121 -0.0101
    1DIPC   D2B12886  22.081  19.270   4.471  0.3081  0.0145  0.4733
    1DIPC   D3B12887  22.016  19.621   4.142  0.0533 -0.0246 -0.1721
    1DIPC   C4B12888  22.242  19.621   3.728  0.2317  0.0274  0.0879
    1DIPC   NC312889  18.490   9.176   6.138  0.1197 -0.1181 -0.2000
    1DIPC   PO412890  18.279   9.496   6.156  0.0756  0.0337  0.2291
    1DIPC   GL112891  18.145   9.276   5.740  0.1653  0.1606 -0.0550
    1DIPC   GL212892  18.425   9.220   5.688 -0.1080  0.1340  0.0533
    1DIPC   C1A12893  18.006   8.989   5.509 -0.0750  0.1203  0.1212
    1DIPC   D2A12894  17.898   8.573   5.318  0.0700 -0.0150 -0.2685
    1DIPC   D3A12895  18.196   8.184   5.178 -0.0790 -0.0414 -0.2930
    1DIPC   C4A12896  18.496   8.297   4.858 -0.3862 -0.0359 -0.2666
    1DIPC   C1B12897  18.489   9.131   5.229  0.0325 -0.0654  0.2331
    1DIPC   D2B12898  18.188   9.051   4.999 -0.0576 -0.0942 -0.0707
    1DIPC   D3B12899  17.996   9.243   4.535 -0.2155 -0.1283 -0.0501
    1DIPC   C4B12900  17.808   9.607   4.477 -0.0608  0.3648  0.3760
    1DIPC   NC312901  16.866  20.812   6.417  0.0547  0.3866  0.1206
    1DIPC   PO412902  17.357  21.030   6.293 -0.2498 -0.3236 -0.1098
    1DIPC   GL112903  17.581  20.889   5.853 -0.1827  0.1169  0.1959
    1DIPC   GL212904  17.285  20.738   5.586  0.0322 -0.0483 -0.1160
    1DIPC   C1A12905  18.075  20.949   5.584 -0.2760 -0.0916 -0.2162
    1DIPC   D2A12906  18.333  20.655   5.364  0.0500 -0.3623 -0.0343
    1DIPC   D3A12907  18.746  20.794   5.221 -0.0684  0.0593  0.2525
    1DIPC   C4A12908  18.845  21.016   4.816  0.0180 -0.0114 -0.0748
    1DIPC   C1B12909  17.397  20.343   5.310  0.2605  0.0243  0.1225
    1DIPC   D2B12910  17.655  20.122   5.204 -0.1891 -0.0951  0.0860
    1DIPC   D3B12911  17.780  20.278   4.898  0.1467  0.0147 -0.2227
    1DIPC   C4B12912  17.718  19.991   4.626  0.0580 -0.1203 -0.0117
    1DIPC   NC312913  28.549   3.759   7.446  0.2129 -0.1784 -0.0941
    1DIPC   PO412914  28.759   4.050   7.172  0.1826 -0.1501  0.3526
    1DIPC   GL112915  28.825   4.118   6.744  0.0800  0.0504 -0.2553
    1DIPC   GL212916  28.934   3.813   6.731  0.1427 -0.0352  0.2634
    1DIPC   C1A12917  28.581   4.162   6.426  0.2737 -0.1814  0.2103
    1DIPC   D2A12918  28.655   4.060   5.971  0.0953 -0.0147  0.1589
    1DIPC   D3A12919  28.837   3.642   5.841 -0.0312  0.2251  0.1538
    1DIPC   C4A12920  29.256   3.690   5.587 -0.1275  0.1695 -0.0836
    1DIPC   C1B12921  28.938   3.765   6.312  0.0579 -0.1162  0.1320
    1DIPC   D2B12922  29.260   3.790   6.087  0.3069  0.1552  0.1597
    1DIPC   D3B12923  29.641   3.614   5.895  0.0061  0.1386  0.0982
    1DIPC   C4B12924  29.984   3.760   6.063 -0.1745 -0.1793  0.0662
    1DIPC   NC312925  10.713  10.653   6.766  0.3816 -0.0062  0.0620
    1DIPC   PO412926  10.260  10.740   6.623  0.1052 -0.1852  0.0555
    1DIPC   GL112927  10.404  10.428   6.316 -0.1483  0.1461 -0.2538
    1DIPC   GL212928  10.777  10.461   6.320 -0.1812 -0.1135 -0.0352
    1DIPC   C1A12929  10.574  10.095   5.959  0.0376 -0.0968  0.0087
    1DIPC   D2A12930  11.020  10.081   5.763 -0.0248 -0.2189 -0.2955
    1DIPC   D3A12931  10.711   9.645   5.684  0.0177 -0.1593 -0.1024
    1DIPC   C4A12932  10.721   9.193   5.891  0.1231 -0.0892 -0.1420
    1DIPC   C1B12933  10.849  10.514   5.914 -0.0151 -0.0529 -0.2087
    1DIPC   D2B12934  10.939  10.400   5.445 -0.0706 -0.0868  0.0079
    1DIPC   D3B12935  10.652  10.059   5.419 -0.0780  0.1754 -0.1512
    1DIPC   C4B12936  10.200  10.106   5.505 -0.3732 -0.3342  0.0614
    1DIPC   NC312937  17.339   5.055   5.670 -0.0141 -0.0353  0.2564
    1DIPC   PO412938  16.973   4.835   5.576  0.3839  0.0039 -0.2191
    1DIPC   GL112939  16.971   4.736   5.163  0.0293 -0.2583  0.2687
    1DIPC   GL212940  17.176   5.016   5.112  0.2469 -0.1225 -0.1164
    1DIPC   C1A12941  17.062   4.921   4.666 -0.2968  0.0321  0.0642
    1DIPC   D2A12942  17.070   5.419   4.605  0.0699 -0.3079  0.1918
    1DIPC   D3A12943  17.047   5.510   4.178  0.4082 -0.1177  0.2236
    1DIPC   C4A12944  16.740   5.487   3.892  0.0575 -0.3131  0.1066
    1DIPC   C1B12945  17.424   5.233   4.858 -0.2824 -0.0264 -0.3141
    1DIPC   D2B12946  17.653   5.271   4.555  0.0602 -0.0402 -0.0713
    1DIPC   D3B12947  17.502   4.936   4.301 -0.3199 -0.1692  0.0857
    1DIPC   C4B12948  17.168   4.870   4.138 -0.1250 -0.2512 -0.0190
    1DIPC   NC312949  21.842  21.292   5.724  0.1546  0.1373 -0.0110
    1DIPC   PO412950  21.743  20.906   5.662  0.2194  0.0854  0.2202
    1DIPC   GL112951  22.090  20.961   5.337  0.1047 -0.0024 -0.1090
    1DIPC   GL212952  22.303  21.154   5.382 -0.1633  0.1363  0.0710
    1DIPC   C1A12953  22.256  20.702   4.939 -0.0889 -0.0181  0.2473
    1DIPC   D2A12954  22.318  20.685   4.554 -0.1988 -0.3298  0.1348
    1DIPC   D3A12955  22.456  20.561   4.199  0.0463 -0.1470 -0.3483
    1DIPC   C4A12956  22.737  20.835   3.983  0.0930 -0.0788 -0.0677
    1DIPC   C1B12957  22.341  21.216   4.965  0.1219 -0.0530  0.2820
    1DIPC   D2B12958  22.480  21.188   4.473  0.0632 -0.0578 -0.3307
    1DIPC   D3B12959  22.288  21.502   4.253  0.0982  0.0051 -0.2471
    1DIPC   C4B12960  21.946  21.470   4.203  0.1813  0.0171 -0.2052
    1DIPC   NC312961   9.488  10.382   6.676 -0.0603 -0.2878 -0.3535
    1DIPC   PO412962  10.021  10.287   6.740 -0.0172 -0.5303 -0.0877
    1DIPC   GL112963   9.785  10.505   6.292  0.1550 -0.0311  0.3846
    1DIPC   GL212964  10.047  10.665   6.104 -0.1565  0.0759  0.1064
    1DIPC   C1A12965   9.580  10.245   6.050  0.0814  0.1369 -0.1633
    1DIPC   D2A12966   9.293  10.007   5.691  0.3280 -0.0374 -0.0290
    1DIPC   D3A12967   9.047   9.893   5.335  0.0687 -0.2855 -0.2563
    1DIPC   C4A12968   8.546   9.836   5.365 -0.1753 -0.1150 -0.2860
    1DIPC   C1B12969  10.030  11.022   5.806  0.1301 -0.0306 -0.0389
    1DIPC   D2B12970  10.182  11.422   5.900  0.0597  0.1460  0.0957
    1DIPC   D3B12971  10.583  11.294   5.757 -0.1851 -0.2207 -0.2076
    1DIPC   C4B12972  10.634  11.470   5.340  0.0153  0.1308  0.0009
    1DIPC   NC312973  22.996  15.445   6.117  0.1584  0.0221 -0.0529
    1DIPC   PO412974  22.874  15.269   5.804  0.1336 -0.0458  0.0023
    1DIPC   GL112975  22.921  15.256   5.383  0.4255  0.1055  0.0507
    1DIPC   GL212976  23.247  15.397   5.332 -0.1303  0.2648 -0.0002
    1DIPC   C1A12977  22.793  15.301   5.046 -0.0144  0.1433 -0.3514
    1DIPC   D2A12978  22.595  15.529   4.660 -0.1664  0.0048 -0.0784
    1DIPC   D3A12979  22.743  15.862   4.257 -0.0538 -0.0940  0.0262
    1DIPC   C4A12980  22.601  16.313   4.322 -0.1543 -0.0182  0.1800
    1DIPC   C1B12981  23.210  15.141   4.895 -0.2483 -0.1176 -0.0747
    1DIPC   D2B12982  23.366  14.848   4.593  0.0741  0.4172  0.1077
    1DIPC   D3B12983  23.300  15.195   4.364  0.0552  0.0491  0.0857
    1DIPC   C4B12984  23.092  15.475   4.436 -0.1113 -0.0321  0.0616
    1DIPC   NC312985   2.431   5.770   6.388 -0.0255  0.2649 -0.1065
    1DIPC   PO412986   2.825   6.012   6.541 -0.2579 -0.1458 -0.0217
    1DIPC   GL112987   2.966   5.985   6.123 -0.1085 -0.2386  0.0462
    1DIPC   GL212988   2.764   5.693   6.009  0.1630 -0.0583 -0.2235
    1DIPC   C1A12989   2.824   6.007   5.663 -0.0075 -0.0720 -0.2001
    1DIPC   D2A12990   2.612   5.841   5.349 -0.0977  0.2629  0.2327
    1DIPC   D3A12991   2.113   5.887   5.386  0.1191 -0.1904  0.0636
    1DIPC   C4A12992   1.990   5.637   5.733 -0.0934 -0.2057  0.2616
    1DIPC   C1B12993   2.854   5.496   5.644 -0.1594  0.1484 -0.2341
    1DIPC   D2B12994   2.626   5.280   5.278  0.2010  0.1612  0.0166
    1DIPC   D3B12995   2.373   4.905   5.497 -0.1535  0.1434 -0.4126
    1DIPC   C4B12996   2.530   4.567   5.404 -0.2429  0.0481  0.0458
    1DIPC   NC312997   6.751  29.372   7.186  0.1550 -0.3623  0.2271
    1DIPC   PO412998   6.588  29.102   6.901 -0.0363 -0.0743 -0.1542
    1DIPC   GL112999   6.740  29.089   6.427 -0.2842 -0.1061 -0.3719
    1DIPC   GL213000   6.635  28.837   6.140 -0.2043  0.2430 -0.0205
    1DIPC   C1A13001   6.672  29.364   6.034 -0.3452  0.1118  0.0821
    1DIPC   D2A13002   6.347  29.634   5.674  0.0466  0.0023  0.0077
    1DIPC   D3A13003   6.398  29.674   5.198 -0.1787  0.0123  0.0711
    1DIPC   C4A13004   6.696  29.683   4.717 -0.1128  0.0932 -0.0238
    1DIPC   C1B13005   6.206  29.216   6.115  0.0840  0.3937  0.1119
    1DIPC   D2B13006   5.870  29.421   5.950 -0.2120  0.0332  0.1496
    1DIPC   D3B13007   5.865  29.576   5.612 -0.4410  0.3040 -0.0323
    1DIPC   C4B13008   5.987  29.470   5.268  0.1447  0.1488  0.4417
    1DIPC   NC313009   1.912   3.112   6.819  0.0324 -0.0016 -0.0879
    1DIPC   PO413010   2.063   3.475   6.983  0.0813  0.3165  0.1249
    1DIPC   GL113011   1.985   3.665   6.552  0.1833 -0.2781  0.2185
    1DIPC   GL213012   2.236   3.752   6.376  0.1908 -0.3085 -0.0914
    1DIPC   C1A13013   1.750   3.725   6.122 -0.2319 -0.0069  0.4342
    1DIPC   D2A13014   1.669   3.573   5.760 -0.2530  0.2356 -0.0894
    1DIPC   D3A13015   1.769   3.497   5.326 -0.4299 -0.1743  0.0321
    1DIPC   C4A13016   1.909   3.636   4.890  0.2250  0.1515 -0.4358
    1DIPC   C1B13017   2.145   3.945   5.949  0.3005 -0.1535 -0.0808
    1DIPC   D2B13018   2.215   3.698   5.573  0.0597  0.0906  0.0378
    1DIPC   D3B13019   2.510   3.629   5.349 -0.1318  0.0914  0.0522
    1DIPC   C4B13020   2.560   3.813   4.893  0.2988  0.1261 -0.0018
    1DIPC   NC313021   1.516   5.375   6.484  0.1988  0.1939 -0.0426
    1DIPC   PO413022   1.456   5.801   6.477  0.0789  0.0665  0.0466
    1DIPC   GL113023   1.354   5.627   6.071  0.0593 -0.1560 -0.0910
    1DIPC   GL213024   1.111   5.426   6.048 -0.0624 -0.0280 -0.0418
    1DIPC   C1A13025   1.578   5.338   5.730 -0.1124 -0.0061 -0.1650
    1DIPC   D2A13026   1.901   5.130   5.833 -0.1406 -0.0512 -0.2716
    1DIPC   D3A13027   1.775   5.008   5.445 -0.1499  0.1205  0.1877
    1DIPC   C4A13028   1.842   5.214   4.966 -0.1012  0.0729  0.1903
    1DIPC   C1B13029   1.167   5.546   5.539  0.1582 -0.4317 -0.1214
    1DIPC   D2B13030   1.077   5.546   5.140  0.0685  0.2093  0.2486
    1DIPC   D3B13031   1.489   5.425   5.201  0.1513 -0.0255  0.1250
    1DIPC   C4B13032   1.810   5.677   5.036  0.3575 -0.2748 -0.1007
    1DIPC   NC313033  15.809  28.735   6.442 -0.0459  0.0954 -0.0289
    1DIPC   PO413034  16.087  28.393   6.321  0.3009  0.1036 -0.1799
    1DIPC   GL113035  16.201  28.487   5.951 -0.0435 -0.2717 -0.0312
    1DIPC   GL213036  16.450  28.310   5.780  0.0849 -0.1098 -0.2422
    1DIPC   C1A13037  16.136  28.665   5.490  0.0805  0.3847  0.0455
    1DIPC   D2A13038  15.696  28.883   5.305 -0.1984 -0.1220  0.0039
    1DIPC   D3A13039  16.068  28.974   5.117  0.1243  0.2080 -0.3469
    1DIPC   C4A13040  15.999  28.897   4.755  0.4666  0.0008  0.3468
    1DIPC   C1B13041  16.610  28.539   5.371 -0.0593  0.1503 -0.2850
    1DIPC   D2B13042  16.515  28.750   4.973  0.1395 -0.1943 -0.0467
    1DIPC   D3B13043  16.157  28.396   4.985  0.1647 -0.0226 -0.2671
    1DIPC   C4B13044  16.230  28.205   5.308 -0.3500 -0.0231  0.0017
    1DIPC   NC313045  26.275   7.161   7.284  0.1891 -0.1906 -0.0963
    1DIPC   PO413046  26.208   7.117   6.869  0.3041  0.2929 -0.1178
    1DIPC   GL113047  26.223   6.962   6.401 -0.1139  0.0328  0.0491
    1DIPC   GL213048  26.365   6.691   6.293  0.0268 -0.0553 -0.1196
    1DIPC   C1A13049  26.339   7.027   5.897 -0.1291  0.0797  0.2662
    1DIPC   D2A13050  26.434   6.913   5.552  0.1160  0.1465  0.0014
    1DIPC   D3A13051  26.173   6.897   5.327  0.2520 -0.3960  0.1093
    1DIPC   C4A13052  26.018   6.621   5.050  0.0934 -0.4047 -0.0523
    1DIPC   C1B13053  26.401   6.512   5.886 -0.0139 -0.5442  0.2585
    1DIPC   D2B13054  26.374   6.375   5.475  0.0473  0.0518 -0.1043
    1DIPC   D3B13055  26.546   6.593   5.087 -0.0389 -0.0592  0.1527
    1DIPC   C4B13056  26.516   7.018   4.991  0.1094  0.2968  0.0048
    1DIPC   NC313057  23.315  23.230   6.440 -0.2860  0.2171 -0.1097
    1DIPC   PO413058  23.374  23.653   6.212  0.0865 -0.0358 -0.2298
    1DIPC   GL113059  23.044  23.730   5.839  0.0507  0.5545  0.2700
    1DIPC   GL213060  23.205  23.983   5.580 -0.1457  0.1262 -0.0422
    1DIPC   C1A13061  22.902  23.391   5.543 -0.0792 -0.0145 -0.2556
    1DIPC   D2A13062  22.995  23.333   5.143  0.0096 -0.0252  0.1066
    1DIPC   D3A13063  23.344  23.241   4.927  0.1347  0.4005 -0.0112
    1DIPC   C4A13064  23.243  23.305   4.401 -0.1156 -0.1295 -0.0433
    1DIPC   C1B13065  23.424  23.665   5.425 -0.0787 -0.3513  0.1131
    1DIPC   D2B13066  23.417  23.259   5.421 -0.0673 -0.0520 -0.2092
    1DIPC   D3B13067  23.621  22.986   5.210 -0.1077  0.0232  0.2193
    1DIPC   C4B13068  23.961  23.136   5.254  0.1563 -0.2089  0.1143
    1DIPC   NC313069  30.237   2.995   7.122 -0.2526  0.1423  0.3318
    1DIPC   PO413070  30.235   2.750   6.832 -0.0508 -0.0660 -0.3191
    1DIPC   GL113071  30.094   2.778   6.452  0.0007  0.3065  0.1534
    1DIPC   GL213072   0.001   2.500   6.459  0.1891 -0.0863  0.1142
    1DIPC   C1A13073  29.746   2.938   6.087  0.3266 -0.1827  0.1241
    1DIPC   D2A13074  29.583   3.084   5.733  0.0377 -0.3143  0.0410
    1DIPC   D3A13075  30.011   3.257   5.770 -0.0556  0.2533 -0.1571
    1DIPC   C4A13076  30.238   3.273   5.354  0.0615 -0.1049  0.0368
    1DIPC   C1B13077  30.273   2.248   6.116  0.3899 -0.2907  0.5573
    1DIPC   D2B13078  29.928   2.097   5.852  0.1740 -0.0605  0.2405
    1DIPC   D3B13079  29.547   2.205   5.602  0.0345  0.1865 -0.0536
    1DIPC   C4B13080  29.488   2.625   5.424  0.3431  0.0363 -0.0021
    1DIPC   NC313081  19.397   8.093   5.749  0.0552 -0.1817 -0.0045
    1DIPC   PO413082  19.564   8.477   5.777  0.1511  0.0872  0.0141
    1DIPC   GL113083  19.371   8.496   5.406 -0.2914  0.0400 -0.0975
    1DIPC   GL213084  19.117   8.434   5.455  0.1950  0.3773 -0.0335
    1DIPC   C1A13085  19.488   8.439   4.994  0.1410  0.0389 -0.1395
    1DIPC   D2A13086  19.576   8.335   4.530 -0.0879 -0.0758  0.1244
    1DIPC   D3A13087  19.919   8.145   4.328  0.0088  0.0155  0.0217
    1DIPC   C4A13088  20.319   8.154   4.163  0.1797  0.1540 -0.1298
    1DIPC   C1B13089  18.996   8.510   4.931 -0.1646  0.0261  0.0373
    1DIPC   D2B13090  18.811   8.346   4.492 -0.0355  0.1346  0.0562
    1DIPC   D3B13091  18.519   8.167   4.317  0.4377 -0.0763 -0.2916
    1DIPC   C4B13092  18.349   8.059   3.848 -0.2312 -0.3001 -0.1211
    1DIPC   NC313093  23.446   9.414   5.703  0.0838 -0.0141  0.2525
    1DIPC   PO413094  23.395   9.797   5.618  0.1328  0.0598 -0.1891
    1DIPC   GL113095  23.139   9.913   5.257  0.2790 -0.1899  0.1073
    1DIPC   GL213096  22.983   9.639   5.126 -0.0946 -0.2423  0.0672
    1DIPC   C1A13097  23.060  10.070   4.832  0.1468 -0.1907 -0.0440
    1DIPC   D2A13098  22.768  10.485   4.847  0.0933  0.1562  0.0881
    1DIPC   D3A13099  22.472  10.187   4.722  0.0619  0.0559 -0.2453
    1DIPC   C4A13100  22.373  10.176   4.365 -0.0463 -0.0245  0.1611
    1DIPC   C1B13101  23.054   9.551   4.733 -0.1749  0.2612  0.0011
    1DIPC   D2B13102  22.946   9.632   4.341 -0.2215  0.1348 -0.1284
    1DIPC   D3B13103  22.839  10.077   4.342  0.1363 -0.2074  0.0012
    1DIPC   C4B13104  23.141  10.346   4.194 -0.0240 -0.0416  0.2009
    1DIPC   NC313105  15.731   8.876   6.560  0.0461 -0.0645 -0.1480
    1DIPC   PO413106  15.405   9.056   6.619 -0.2898 -0.1901 -0.1984
    1DIPC   GL113107  15.313   8.945   6.135  0.0655  0.0411 -0.2208
    1DIPC   GL213108  15.344   9.220   5.946  0.2974  0.2526  0.0089
    1DIPC   C1A13109  15.180   8.667   5.801  0.2564  0.1733 -0.2744
    1DIPC   D2A13110  15.040   8.699   5.375  0.1406 -0.0032  0.1796
    1DIPC   D3A13111  14.690   8.629   5.570  0.0300 -0.3958 -0.1425
    1DIPC   C4A13112  14.518   8.817   5.793  0.1869  0.3299 -0.0836
    1DIPC   C1B13113  15.166   9.594   5.642  0.1935  0.1670 -0.1076
    1DIPC   D2B13114  15.106   9.917   5.387 -0.3510  0.0614  0.1559
    1DIPC   D3B13115  15.155  10.207   5.126 -0.1375 -0.3417 -0.1261
    1DIPC   C4B13116  15.172  10.195   4.728  0.3201 -0.0871  0.1093
    1DIPC   NC313117  21.936   7.732   6.109 -0.0086  0.5734  0.0951
    1DIPC   PO413118  22.043   7.797   5.652 -0.1396 -0.0658  0.0260
    1DIPC   GL113119  22.109   7.954   5.228 -0.0920 -0.1809 -0.0048
    1DIPC   GL213120  22.427   8.078   5.214  0.1748  0.2020  0.1028
    1DIPC   C1A13121  22.017   8.336   4.933  0.2672 -0.2007 -0.1650
    1DIPC   D2A13122  22.171   8.447   4.525  0.3167  0.2239 -0.1204
    1DIPC   D3A13123  22.085   8.829   4.180  0.1874 -0.2711  0.0343
    1DIPC   C4A13124  21.949   9.152   3.905 -0.3945  0.4249  0.1106
    1DIPC   C1B13125  22.626   8.319   4.785 -0.1332  0.0207 -0.0205
    1DIPC   D2B13126  22.703   8.282   4.360  0.1381 -0.3342 -0.1903
    1DIPC   D3B13127  22.550   8.802   4.415  0.1921 -0.3294 -0.1046
    1DIPC   C4B13128  22.928   9.083   4.271  0.1124  0.3350 -0.3054
    1DIPC   NC313129  16.297  28.014   6.595 -0.0561 -0.2736  0.1374
    1DIPC   PO413130  16.834  27.860   6.669  0.1904  0.0161  0.1470
    1DIPC   GL113131  16.712  27.983   6.238  0.1722 -0.0936 -0.3064
    1DIPC   GL213132  16.449  27.907   6.110 -0.0293 -0.0069  0.1077
    1DIPC   C1A13133  16.936  28.194   5.984  0.0644 -0.1300 -0.0441
    1DIPC   D2A13134  17.215  28.318   5.670 -0.2304 -0.1356 -0.0042
    1DIPC   D3A13135  16.964  28.277   5.192 -0.3520  0.1875 -0.0086
    1DIPC   C4A13136  17.194  28.052   4.822  0.0660 -0.2898 -0.0930
    1DIPC   C1B13137  16.163  27.788   5.707  0.0452  0.0635  0.1475
    1DIPC   D2B13138  16.172  27.737   5.349  0.0038  0.2999  0.0794
    1DIPC   D3B13139  16.151  27.272   5.451 -0.1704 -0.2510 -0.1784
    1DIPC   C4B13140  16.596  26.996   5.492 -0.0712 -0.1480 -0.2051
    1DIPC   NC313141  24.277   7.984   5.786 -0.1580 -0.2152  0.0899
    1DIPC   PO413142  24.670   7.837   5.901  0.1483  0.0049  0.2010
    1DIPC   GL113143  24.747   8.005   5.554 -0.0500  0.1574 -0.3619
    1DIPC   GL213144  24.643   8.249   5.474  0.0169 -0.1687  0.2059
    1DIPC   C1A13145  25.034   8.024   5.279  0.1739 -0.1086 -0.0386
    1DIPC   D2A13146  25.265   8.275   4.966 -0.1367  0.0946  0.1631
    1DIPC   D3A13147  25.616   8.056   4.614 -0.0025 -0.2647  0.1665
    1DIPC   C4A13148  25.906   7.728   4.811 -0.3528 -0.0246  0.2472
    1DIPC   C1B13149  24.515   7.950   5.155 -0.0667 -0.0258  0.1593
    1DIPC   D2B13150  24.603   7.706   4.731 -0.1790 -0.2710  0.0926
    1DIPC   D3B13151  24.130   7.627   4.672  0.1927 -0.0702  0.1198
    1DIPC   C4B13152  23.923   7.869   4.323  0.0502  0.0135 -0.5650
    1DIPC   NC313153  27.726   3.950   7.063  0.2527  0.2514  0.0228
    1DIPC   PO413154  27.754   4.353   7.223 -0.1036  0.1594 -0.1468
    1DIPC   GL113155  27.815   4.248   6.729 -0.1728  0.0219 -0.2947
    1DIPC   GL213156  27.962   3.973   6.611 -0.0108 -0.1055  0.3981
    1DIPC   C1A13157  27.636   4.431   6.307 -0.0440  0.2386 -0.1150
    1DIPC   D2A13158  27.885   4.694   5.903  0.0790 -0.0393  0.2044
    1DIPC   D3A13159  28.056   4.945   5.540  0.1890 -0.1990 -0.3232
    1DIPC   C4A13160  27.984   5.340   5.237  0.1523  0.1103  0.0612
    1DIPC   C1B13161  28.084   4.222   6.217 -0.0019  0.3723  0.1079
    1DIPC   D2B13162  28.261   4.344   5.834 -0.0641  0.2470 -0.2014
    1DIPC   D3B13163  28.089   4.081   5.396  0.0290 -0.1438 -0.0640
    1DIPC   C4B13164  27.616   4.099   5.281  0.0686 -0.0335 -0.1489
    1DIPC   NC313165   8.784   2.394   6.535  0.2770 -0.2094  0.3086
    1DIPC   PO413166   8.420   2.513   6.275  0.1052 -0.2579  0.1279
    1DIPC   GL113167   7.901   2.556   6.216  0.0665 -0.2973 -0.1609
    1DIPC   GL213168   7.816   2.794   5.987 -0.1914 -0.1117 -0.0140
    1DIPC   C1A13169   7.560   2.653   6.419 -0.1078 -0.3149  0.0412
    1DIPC   D2A13170   7.276   2.808   6.668 -0.0047  0.0621 -0.3109
    1DIPC   D3A13171   7.074   3.064   6.328 -0.1176  0.1401  0.4535
    1DIPC   C4A13172   7.363   3.485   6.274  0.0797  0.2196  0.2193
    1DIPC   C1B13173   7.291   2.693   5.880 -0.0673 -0.1199 -0.0895
    1DIPC   D2B13174   6.936   2.621   6.122 -0.0787 -0.3537  0.1774
    1DIPC   D3B13175   6.850   2.159   6.069 -0.0973 -0.1929 -0.2310
    1DIPC   C4B13176   7.041   1.833   5.851  0.0993 -0.0385  0.3224
    1DIPC   NC313177   2.452  28.045   7.025 -0.1485  0.0078 -0.2417
    1DIPC   PO413178   2.105  27.887   6.893  0.1835 -0.4080 -0.0880
    1DIPC   GL113179   1.979  28.089   6.524 -0.3146  0.3030  0.1190
    1DIPC   GL213180   1.703  28.132   6.366  0.0301  0.4973 -0.0439
    1DIPC   C1A13181   2.227  28.294   6.167 -0.4486  0.1360 -0.1493
    1DIPC   D2A13182   2.183  28.635   5.847 -0.0774 -0.0212 -0.2074
    1DIPC   D3A13183   2.113  28.506   5.419  0.0994  0.1175  0.0347
    1DIPC   C4A13184   1.734  28.460   5.337 -0.1666 -0.1963 -0.0331
    1DIPC   C1B13185   1.479  27.883   6.041  0.0477 -0.0738 -0.1004
    1DIPC   D2B13186   1.431  27.523   5.738 -0.1829  0.1893 -0.3103
    1DIPC   D3B13187   0.946  27.343   5.804  0.3721  0.0578  0.1298
    1DIPC   C4B13188   0.633  27.340   5.563 -0.0285 -0.0678 -0.1392
    1DIPC   NC313189  18.248   2.091   6.208 -0.1598  0.1158  0.2018
    1DIPC   PO413190  18.528   1.974   6.030  0.0303  0.0435 -0.0549
    1DIPC   GL113191  18.724   1.884   5.661  0.0645 -0.2472  0.0980
    1DIPC   GL213192  18.909   1.750   5.649  0.0271 -0.4283  0.3295
    1DIPC   C1A13193  18.771   2.165   5.262 -0.1776 -0.1647 -0.0374
    1DIPC   D2A13194  19.078   2.175   4.889 -0.0718  0.1559  0.1694
    1DIPC   D3A13195  19.155   1.810   4.553  0.0028 -0.2982 -0.4259
    1DIPC   C4A13196  19.366   1.468   4.533  0.0779  0.0148 -0.1117
    1DIPC   C1B13197  18.822   1.610   5.198 -0.3731 -0.3720 -0.1986
    1DIPC   D2B13198  18.499   1.891   4.888 -0.1041 -0.1532  0.0562
    1DIPC   D3B13199  18.063   2.057   4.735 -0.2832 -0.1258  0.0255
    1DIPC   C4B13200  17.929   2.370   4.451 -0.0886  0.0206  0.2057
    1DIPC   NC313201  25.532   5.527   7.485  0.1722  0.0904  0.0508
    1DIPC   PO413202  25.319   5.678   7.125 -0.0704  0.0887 -0.0845
    1DIPC   GL113203  25.376   5.416   6.717  0.1312 -0.0353  0.1166
    1DIPC   GL213204  25.330   5.719   6.311 -0.1121 -0.0885  0.0527
    1DIPC   C1A13205  25.264   5.188   6.312  0.0156  0.0118  0.3017
    1DIPC   D2A13206  24.997   5.220   5.992 -0.1738  0.1263 -0.1307
    1DIPC   D3A13207  25.352   4.978   5.881 -0.4666 -0.1315  0.0473
    1DIPC   C4A13208  25.331   4.671   5.619  0.1244 -0.2981  0.2985
    1DIPC   C1B13209  25.401   5.536   5.965 -0.0192 -0.3132  0.3023
    1DIPC   D2B13210  25.761   5.180   5.698  0.1473 -0.2045 -0.1279
    1DIPC   D3B13211  25.988   5.286   5.263  0.0805  0.2710  0.1495
    1DIPC   C4B13212  26.409   5.265   5.251 -0.2386 -0.0878  0.0756
    1DIPC   NC313213  23.115  20.917   5.879  0.0215  0.2198 -0.0567
    1DIPC   PO413214  23.281  20.737   5.657  0.0752 -0.1889  0.2402
    1DIPC   GL113215  23.565  20.907   5.345  0.1221  0.1117  0.2175
    1DIPC   GL213216  23.649  21.123   5.221 -0.2069 -0.1963 -0.1027
    1DIPC   C1A13217  23.662  20.639   5.071 -0.0226  0.0887  0.2426
    1DIPC   D2A13218  23.692  20.613   4.592  0.1257 -0.2180 -0.3031
    1DIPC   D3A13219  23.427  20.425   4.491 -0.1180  0.0944  0.1594
    1DIPC   C4A13220  23.108  20.231   4.740  0.0635 -0.0201  0.1243
    1DIPC   C1B13221  23.855  21.063   4.778  0.1796  0.1186 -0.0218
    1DIPC   D2B13222  23.888  21.160   4.375  0.2596  0.3040  0.1012
    1DIPC   D3B13223  23.816  20.847   4.097 -0.4422  0.3017 -0.0759
    1DIPC   C4B13224  23.631  20.501   4.058  0.1442  0.1557 -0.2263
    1DIPC   NC313225   5.807   2.018   7.120  0.0549  0.2740 -0.2554
    1DIPC   PO413226   6.225   1.689   7.219 -0.1779  0.1383 -0.0732
    1DIPC   GL113227   6.319   1.818   6.881 -0.2608  0.0702  0.0425
    1DIPC   GL213228   5.993   1.879   6.715  0.3376 -0.3104 -0.0746
    1DIPC   C1A13229   6.430   1.426   6.650 -0.3617 -0.0138  0.0196
    1DIPC   D2A13230   6.506   1.340   6.225 -0.0322  0.2960 -0.1272
    1DIPC   D3A13231   6.098   1.070   6.282 -0.2595 -0.0683  0.0138
    1DIPC   C4A13232   6.325   0.660   6.308  0.0060 -0.1156  0.3674
    1DIPC   C1B13233   6.168   1.732   6.314 -0.2053  0.0854 -0.0879
    1DIPC   D2B13234   6.011   1.551   6.057 -0.0538  0.0709  0.1026
    1DIPC   D3B13235   5.857   1.676   5.639 -0.0913 -0.3177  0.0614
    1DIPC   C4B13236   6.016   1.379   5.372  0.0274  0.1392  0.4944
    1DIPC   NC313237  21.238  13.038   5.890  0.1724  0.0343 -0.0372
    1DIPC   PO413238  21.324  13.494   5.820 -0.2742  0.1655 -0.0340
    1DIPC   GL113239  21.521  13.169   5.549  0.1865  0.5391 -0.0054
    1DIPC   GL213240  21.385  12.885   5.357  0.1921 -0.2534 -0.0709
    1DIPC   C1A13241  21.769  13.071   5.164 -0.3343  0.0153  0.1056
    1DIPC   D2A13242  21.901  13.252   4.804 -0.0763 -0.0549  0.1583
    1DIPC   D3A13243  21.529  13.015   4.437  0.2501 -0.2211  0.0476
    1DIPC   C4A13244  21.444  12.561   4.463 -0.1048 -0.3175  0.1179
    1DIPC   C1B13245  20.979  12.853   5.229 -0.2564  0.2387  0.3177
    1DIPC   D2B13246  20.520  12.847   5.276  0.1966 -0.4316  0.1211
    1DIPC   D3B13247  20.549  12.872   4.870  0.1057 -0.2325  0.0051
    1DIPC   C4B13248  20.365  12.996   4.494 -0.1990  0.0376  0.0119
    1DIPC   NC313249  20.073  26.066   6.406 -0.0526  0.3427 -0.1400
    1DIPC   PO413250  19.739  25.882   6.433 -0.4138  0.1187  0.1401
    1DIPC   GL113251  19.777  25.794   6.006  0.1559 -0.0881  0.0979
    1DIPC   GL213252  19.605  26.029   5.768  0.0691  0.2235 -0.0272
    1DIPC   C1A13253  20.142  25.802   5.766 -0.0856  0.0660 -0.2247
    1DIPC   D2A13254  20.371  26.051   5.762  0.1844  0.3892  0.1821
    1DIPC   D3A13255  20.180  26.293   5.409 -0.3080 -0.1012 -0.0125
    1DIPC   C4A13256  19.852  25.952   5.258 -0.4603  0.1730 -0.0049
    1DIPC   C1B13257  19.219  26.037   5.609  0.0566 -0.1127  0.0993
    1DIPC   D2B13258  19.029  26.443   5.551 -0.2846 -0.1217 -0.1881
    1DIPC   D3B13259  19.329  26.524   5.762  0.0719 -0.0143  0.0465
    1DIPC   C4B13260  19.810  26.517   5.562  0.1961 -0.0967 -0.0276
    1DIPC   NC313261   4.992   6.824   7.168  0.1806  0.3617 -0.2080
    1DIPC   PO413262   5.109   6.740   6.725 -0.1887  0.2075 -0.1735
    1DIPC   GL113263   5.145   6.994   6.397  0.1334  0.2380 -0.2738
    1DIPC   GL213264   4.988   7.233   6.391  0.1376  0.0776 -0.1075
    1DIPC   C1A13265   5.213   6.929   5.986 -0.1650  0.4129  0.1665
    1DIPC   D2A13266   5.205   7.058   5.556  0.1907 -0.0789 -0.1945
    1DIPC   D3A13267   5.235   7.469   5.491  0.2974 -0.0666  0.0764
    1DIPC   C4A13268   5.484   7.665   5.164 -0.2012 -0.4276  0.1895
    1DIPC   C1B13269   4.831   7.329   5.968  0.1888 -0.2633  0.2422
    1DIPC   D2B13270   4.558   7.362   5.573  0.0906  0.1574 -0.2319
    1DIPC   D3B13271   4.780   7.194   5.229 -0.0077 -0.1517  0.0050
    1DIPC   C4B13272   4.552   6.793   5.139 -0.0586  0.0429 -0.0453
    1DIPC   NC313273  15.696  17.003   6.059  0.1458  0.4556 -0.2979
    1DIPC   PO413274  16.026  17.294   6.125  0.0832 -0.0649  0.0553
    1DIPC   GL113275  15.881  17.286   5.703 -0.2292 -0.1493  0.1204
    1DIPC   GL213276  15.581  17.277   5.680 -0.1666  0.2657 -0.1645
    1DIPC   C1A13277  15.815  17.600   5.374 -0.3658  0.0159 -0.0805
    1DIPC   D2A13278  15.878  17.501   4.998 -0.4358 -0.1883 -0.1287
    1DIPC   D3A13279  15.595  17.698   4.693 -0.0658 -0.1771  0.0934
    1DIPC   C4A13280  15.438  17.459   4.301  0.0933 -0.1119  0.1721
    1DIPC   C1B13281  15.714  16.869   5.384 -0.1259 -0.0949 -0.1505
    1DIPC   D2B13282  15.609  16.698   4.977 -0.3549  0.0377  0.2782
    1DIPC   D3B13283  15.786  16.609   4.652  0.1262  0.0359  0.2311
    1DIPC   C4B13284  15.637  16.105   4.685  0.0589  0.0056 -0.5618
    1DIPC   NC313285  20.969  21.628   6.133 -0.1219 -0.0444 -0.0146
    1DIPC   PO413286  21.386  21.536   5.870 -0.0811 -0.3040  0.1416
    1DIPC   GL113287  21.454  21.370   5.446 -0.0912 -0.0064 -0.1159
    1DIPC   GL213288  21.402  21.091   5.327 -0.0931  0.0648  0.1422
    1DIPC   C1A13289  21.795  21.313   5.110 -0.4080  0.0934  0.3276
    1DIPC   D2A13290  21.967  21.478   4.705  0.3114 -0.1281 -0.1905
    1DIPC   D3A13291  21.947  21.072   4.491 -0.0120  0.0058  0.2918
    1DIPC   C4A13292  22.226  20.987   4.113 -0.0899 -0.1987 -0.0785
    1DIPC   C1B13293  21.381  21.339   4.873 -0.1327 -0.2542  0.1275
    1DIPC   D2B13294  21.082  21.687   4.713  0.1451 -0.2362  0.3021
    1DIPC   D3B13295  20.955  21.310   4.391  0.0781  0.0287 -0.0681
    1DIPC   C4B13296  20.598  21.043   4.446 -0.2088  0.0135 -0.3196
    1DIPC   NC313297  11.105  19.893   5.564 -0.0194  0.2540  0.0690
    1DIPC   PO413298  11.243  19.462   5.418  0.2067  0.0363 -0.1106
    1DIPC   GL113299  11.350  19.608   5.031  0.2365 -0.4215 -0.1205
    1DIPC   GL213300  11.667  19.520   4.981 -0.1301  0.1131  0.1046
    1DIPC   C1A13301  11.309  19.598   4.582  0.0153 -0.2456 -0.3266
    1DIPC   D2A13302  10.853  19.587   4.419 -0.1989 -0.2043 -0.0282
    1DIPC   D3A13303  10.680  19.841   4.239  0.4017 -0.1655 -0.0611
    1DIPC   C4A13304  10.677  20.210   4.239 -0.1912  0.1397 -0.0477
    1DIPC   C1B13305  11.786  19.864   4.594 -0.0316  0.1493 -0.0222
    1DIPC   D2B13306  11.684  19.937   4.178  0.2506  0.0220 -0.1035
    1DIPC   D3B13307  12.034  20.054   3.880  0.0360 -0.1463  0.2993
    1DIPC   C4B13308  11.768  20.236   3.473  0.1420  0.0166 -0.4471
    1DIPC   NC313309   2.371   3.843   7.238 -0.0591 -0.0527  0.1426
    1DIPC   PO413310   2.532   3.714   6.809  0.0572 -0.4869 -0.0083
    1DIPC   GL113311   2.410   3.263   6.566  0.1630 -0.1574 -0.1010
    1DIPC   GL213312   2.061   3.222   6.338  0.2513 -0.1013  0.0410
    1DIPC   C1A13313   2.459   2.983   6.136  0.0531 -0.0929 -0.0472
    1DIPC   D2A13314   2.279   2.902   5.733 -0.3379  0.0821 -0.2271
    1DIPC   D3A13315   2.473   3.203   5.619  0.1861 -0.2451  0.1143
    1DIPC   C4A13316   2.577   3.604   5.903  0.0101  0.3654 -0.2354
    1DIPC   C1B13317   2.090   3.361   5.942 -0.2378  0.1466 -0.1875
    1DIPC   D2B13318   1.833   3.103   5.582  0.3179 -0.1185  0.1473
    1DIPC   D3B13319   1.420   3.087   5.395 -0.0212 -0.2301 -0.0441
    1DIPC   C4B13320   1.358   2.698   5.229 -0.1460  0.1119 -0.2021
    1DIPC   NC313321  18.058   5.624   6.775 -0.0197  0.1366  0.3210
    1DIPC   PO413322  18.056   5.243   6.432  0.0841 -0.0147 -0.0538
    1DIPC   GL113323  18.105   5.348   5.960 -0.1322  0.2792 -0.0719
    1DIPC   GL213324  17.913   5.113   5.761  0.0649  0.1280 -0.3143
    1DIPC   C1A13325  18.085   5.590   5.564  0.0827 -0.2400 -0.1164
    1DIPC   D2A13326  18.209   5.899   5.145 -0.1204  0.1149 -0.0344
    1DIPC   D3A13327  18.396   6.049   4.769  0.0382 -0.0309  0.0311
    1DIPC   C4A13328  18.261   5.902   4.426  0.0433  0.0948  0.0779
    1DIPC   C1B13329  18.159   5.094   5.486 -0.1480  0.2531 -0.1812
    1DIPC   D2B13330  18.287   4.958   5.189 -0.0133 -0.0559  0.2253
    1DIPC   D3B13331  17.940   5.171   4.949  0.1668  0.1499 -0.4098
    1DIPC   C4B13332  18.132   5.087   4.481  0.4550  0.0428  0.0684
    1DIPC   NC313333  27.131   6.687   7.115  0.0577 -0.3249  0.2208
    1DIPC   PO413334  27.395   6.809   6.800  0.3782  0.0181  0.3326
    1DIPC   GL113335  27.291   6.835   6.430 -0.3915  0.0286 -0.3673
    1DIPC   GL213336  27.534   6.969   6.227  0.1845 -0.4153 -0.0739
    1DIPC   C1A13337  27.189   6.656   6.078 -0.1693 -0.1581  0.3343
    1DIPC   D2A13338  27.281   6.387   5.656  0.2565 -0.6837  0.1221
    1DIPC   D3A13339  27.765   6.570   5.538  0.1003  0.0453  0.3045
    1DIPC   C4A13340  27.997   6.623   5.126  0.1101 -0.1240 -0.1573
    1DIPC   C1B13341  27.455   6.985   5.796  0.0374 -0.2677 -0.2250
    1DIPC   D2B13342  27.486   6.921   5.345  0.0633 -0.1923  0.2741
    1DIPC   D3B13343  27.372   6.509   5.025  0.1346  0.2154 -0.0638
    1DIPC   C4B13344  27.543   6.234   5.296 -0.2876  0.0678  0.1756
    1DIPC   NC313345  22.614   3.869   6.790 -0.2495  0.0853 -0.0895
    1DIPC   PO413346  22.424   3.534   6.681  0.0505  0.1867 -0.2023
    1DIPC   GL113347  22.337   3.720   6.216  0.2675  0.1934  0.0647
    1DIPC   GL213348  22.597   3.866   6.312 -0.2294  0.0984  0.1598
    1DIPC   C1A13349  22.166   3.647   5.725  0.1357  0.1722 -0.2079
    1DIPC   D2A13350  22.299   3.756   5.292  0.1308 -0.1187 -0.0046
    1DIPC   D3A13351  21.941   3.988   4.958  0.0373 -0.0287 -0.2329
    1DIPC   C4A13352  21.939   3.943   4.543  0.1842  0.0849  0.1663
    1DIPC   C1B13353  22.759   3.761   5.902  0.3320 -0.0708  0.3186
    1DIPC   D2B13354  22.615   3.485   5.601  0.1474  0.0017  0.3182
    1DIPC   D3B13355  22.715   3.004   5.618 -0.1379  0.3201  0.1338
    1DIPC   C4B13356  22.601   2.615   5.400  0.0660 -0.2646  0.1362
    1DIPC   NC313357   8.688  10.867   6.542 -0.0795  0.0169  0.0396
    1DIPC   PO413358   8.381  11.231   6.441 -0.1696  0.1916 -0.0103
    1DIPC   GL113359   8.642  11.404   6.193 -0.1031 -0.1238 -0.1160
    1DIPC   GL213360   8.680  11.120   5.982 -0.0524  0.2529  0.0208
    1DIPC   C1A13361   8.997  11.480   5.943 -0.0783 -0.1590  0.0150
    1DIPC   D2A13362   9.350  11.834   5.967 -0.1910  0.1630  0.0131
    1DIPC   D3A13363   9.344  12.053   5.503  0.0658 -0.0119  0.0481
    1DIPC   C4A13364   9.047  11.956   5.300  0.0129 -0.0845 -0.3446
    1DIPC   C1B13365   8.724  11.320   5.579  0.0760 -0.1449 -0.1522
    1DIPC   D2B13366   8.377  11.460   5.264 -0.1383  0.2469  0.4330
    1DIPC   D3B13367   8.652  11.176   4.998 -0.3763 -0.1561  0.2852
    1DIPC   C4B13368   8.516  10.920   4.676 -0.2175  0.2671  0.0021
    1DIPC   NC313369   5.653  16.811   6.236 -0.0915  0.0366 -0.0326
    1DIPC   PO413370   6.104  16.843   6.226  0.1757  0.1130 -0.0415
    1DIPC   GL113371   6.333  16.753   5.820  0.1935  0.1117  0.2236
    1DIPC   GL213372   6.576  16.914   5.672 -0.2879 -0.1904  0.2447
    1DIPC   C1A13373   6.379  16.459   5.441 -0.2088 -0.1295  0.1598
    1DIPC   D2A13374   6.548  16.311   5.057  0.2529 -0.1063 -0.0367
    1DIPC   D3A13375   6.195  16.379   4.690  0.0399  0.1927 -0.1201
    1DIPC   C4A13376   5.851  16.492   4.488 -0.0872  0.3269  0.1010
    1DIPC   C1B13377   6.606  16.833   5.131 -0.0551 -0.1277  0.0772
    1DIPC   D2B13378   6.531  16.747   4.702  0.1649 -0.0673 -0.1579
    1DIPC   D3B13379   6.261  16.834   4.374 -0.2275 -0.0354  0.1157
    1DIPC   C4B13380   5.977  16.758   4.026  0.0099  0.1467  0.0984
    1DIPC   NC313381  12.261  19.921   5.982 -0.1326 -0.0445  0.0025
    1DIPC   PO413382  12.342  19.747   5.482 -0.3215 -0.1083  0.0086
    1DIPC   GL113383  12.315  19.531   5.079  0.1626  0.0935  0.1925
    1DIPC   GL213384  12.118  19.283   5.021  0.2162  0.1790 -0.0568
    1DIPC   C1A13385  12.350  19.576   4.573  0.1597 -0.2040  0.0239
    1DIPC   D2A13386  12.152  19.772   4.249  0.1182  0.0380  0.0271
    1DIPC   D3A13387  11.839  19.503   4.077 -0.1276  0.1399  0.1550
    1DIPC   C4A13388  11.832  19.666   3.702 -0.2030 -0.0979  0.0872
    1DIPC   C1B13389  12.315  19.038   4.710  0.0802 -0.0339 -0.0051
    1DIPC   D2B13390  12.602  19.100   4.412  0.0225 -0.0209 -0.0797
    1DIPC   D3B13391  12.483  18.760   4.161 -0.2352 -0.3603 -0.0353
    1DIPC   C4B13392  12.118  18.498   4.028 -0.1025  0.0457  0.0016
    1DIPC   NC313393   1.683  11.217   6.917 -0.0288 -0.0596 -0.0073
    1DIPC   PO413394   1.236  11.122   6.832 -0.0974  0.2113 -0.0808
    1DIPC   GL113395   1.131  10.943   6.447  0.0388  0.1917 -0.3635
    1DIPC   GL213396   1.299  10.557   6.507 -0.1101  0.1577 -0.1470
    1DIPC   C1A13397   1.145  10.881   6.061  0.2553  0.2021 -0.1037
    1DIPC   D2A13398   1.029  10.713   5.653  0.1326 -0.2791  0.1335
    1DIPC   D3A13399   0.671  10.388   5.848 -0.1346  0.2054 -0.1021
    1DIPC   C4A13400   0.853   9.961   5.787 -0.2300 -0.2207 -0.0758
    1DIPC   C1B13401   1.667  10.670   6.530  0.1073  0.2655  0.0517
    1DIPC   D2B13402   1.996  10.475   6.475 -0.0721  0.2701  0.3877
    1DIPC   D3B13403   2.027  10.424   6.057  0.1782  0.0397 -0.5488
    1DIPC   C4B13404   1.944  10.802   5.749  0.0394  0.3285  0.1516
    1DIPC   NC313405  18.214  17.765   5.835  0.1747  0.1995 -0.0563
    1DIPC   PO413406  18.102  17.366   5.986  0.0040  0.0812  0.1653
    1DIPC   GL113407  18.131  17.334   5.484 -0.0759 -0.2783  0.0369
    1DIPC   GL213408  17.863  17.101   5.290  0.2610  0.2316  0.2546
    1DIPC   C1A13409  18.342  17.270   5.141 -0.0927 -0.2092 -0.0790
    1DIPC   D2A13410  18.576  17.133   4.779 -0.0828 -0.2983 -0.2112
    1DIPC   D3A13411  18.479  17.455   4.461 -0.0976  0.1985  0.0869
    1DIPC   C4A13412  18.730  17.844   4.290  0.1877  0.1212  0.4533
    1DIPC   C1B13413  17.810  16.885   5.672 -0.0093  0.0608 -0.2332
    1DIPC   D2B13414  17.847  16.463   5.760  0.0964 -0.0496 -0.5420
    1DIPC   D3B13415  18.281  16.484   5.868  0.1508 -0.0492  0.0310
    1DIPC   C4B13416  18.630  16.246   5.752  0.1811  0.0102  0.1544
    1DIPC   NC313417   5.603  23.725   6.527 -0.3077 -0.3607 -0.0175
    1DIPC   PO413418   5.717  24.088   6.485 -0.1480 -0.3116  0.0627
    1DIPC   GL113419   5.845  24.211   6.140  0.1220 -0.0603 -0.0855
    1DIPC   GL213420   6.147  24.265   6.094  0.0037 -0.0842 -0.0517
    1DIPC   C1A13421   5.851  24.304   5.739 -0.1103 -0.2294  0.0953
    1DIPC   D2A13422   6.005  24.455   5.413 -0.2250  0.4534 -0.0115
    1DIPC   D3A13423   6.058  24.379   5.001  0.1936 -0.0376 -0.3382
    1DIPC   C4A13424   6.472  24.404   4.754  0.0994 -0.1413 -0.1231
    1DIPC   C1B13425   6.309  24.522   5.830  0.0091 -0.2650  0.0383
    1DIPC   D2B13426   6.419  24.794   5.485  0.1004 -0.0881 -0.0755
    1DIPC   D3B13427   6.396  24.675   5.178  0.1065 -0.1320  0.1504
    1DIPC   C4B13428   6.677  24.772   5.043  0.2284 -0.0195  0.0365
    1DIPC   NC313429  15.372   7.701   5.753 -0.0519 -0.1462  0.0982
    1DIPC   PO413430  15.669   7.411   5.659  0.1196 -0.1733 -0.1975
    1DIPC   GL113431  15.513   7.376   5.286 -0.0740 -0.0557  0.0927
    1DIPC   GL213432  15.598   7.126   5.157 -0.0347 -0.3263  0.3412
    1DIPC   C1A13433  15.475   7.530   4.888  0.2313 -0.0369 -0.1114
    1DIPC   D2A13434  15.230   7.695   4.498  0.0123  0.2683 -0.2562
    1DIPC   D3A13435  15.290   7.638   4.126 -0.0447  0.1149  0.1343
    1DIPC   C4A13436  15.743   7.548   4.007 -0.2485 -0.1052  0.0340
    1DIPC   C1B13437  15.288   7.055   4.880  0.1453  0.2717 -0.1084
    1DIPC   D2B13438  15.121   6.726   4.685  0.0592  0.2007  0.0461
    1DIPC   D3B13439  15.003   6.480   4.328 -0.2000 -0.1093 -0.0012
    1DIPC   C4B13440  14.725   6.624   4.086 -0.0081 -0.0169 -0.1632
    1DIPC   NC313441  25.345   0.960   7.081  0.3535  0.0261  0.3724
    1DIPC   PO413442  25.446   0.560   6.974 -0.3523  0.0222  0.2324
    1DIPC   GL113443  25.461   0.760   6.584  0.2826  0.0596 -0.0437
    1DIPC   GL213444  25.404   1.027   6.580  0.0097  0.1137 -0.0897
    1DIPC   C1A13445  25.797   0.726   6.260 -0.0162  0.0213 -0.1917
    1DIPC   D2A13446  26.251   0.659   6.354 -0.1076 -0.2082 -0.0929
    1DIPC   D3A13447  26.598   0.784   5.930 -0.2377  0.3428 -0.1367
    1DIPC   C4A13448  26.722   1.141   5.775 -0.1911  0.1662  0.0256
    1DIPC   C1B13449  25.314   1.436   6.359  0.0489  0.1447  0.0977
    1DIPC   D2B13450  25.550   1.717   6.096 -0.3105  0.0374 -0.0285
    1DIPC   D3B13451  25.316   1.335   5.872  0.3293  0.4202  0.0053
    1DIPC   C4B13452  25.292   0.827   6.082  0.2392  0.0239 -0.2040
    1DIPC   NC313453  11.492   7.607   6.386  0.0381 -0.1819 -0.0335
    1DIPC   PO413454  11.904   7.318   6.368  0.0693 -0.0129 -0.5307
    1DIPC   GL113455  11.848   7.544   6.016 -0.2604  0.0688  0.0731
    1DIPC   GL213456  12.012   7.234   5.844  0.2359 -0.2392 -0.2054
    1DIPC   C1A13457  11.755   7.608   5.599 -0.0483  0.2341 -0.0504
    1DIPC   D2A13458  11.707   7.624   5.175 -0.0596 -0.4426  0.2660
    1DIPC   D3A13459  11.282   7.589   5.150  0.0446 -0.1809  0.0165
    1DIPC   C4A13460  10.830   7.420   5.166 -0.0227  0.0173 -0.0170
    1DIPC   C1B13461  11.789   6.868   5.856  0.4503 -0.2124  0.0907
    1DIPC   D2B13462  11.594   6.488   5.753  0.2530  0.0708  0.0026
    1DIPC   D3B13463  11.740   6.603   5.394 -0.1131 -0.2936 -0.3676
    1DIPC   C4B13464  11.590   6.695   4.977  0.1119  0.1017  0.0476
    1DIPC   NC313465  27.862   6.887   6.599 -0.3015 -0.1078  0.1704
    1DIPC   PO413466  28.218   7.070   6.504 -0.1861 -0.3464 -0.2728
    1DIPC   GL113467  27.979   7.403   6.259 -0.1692 -0.0950  0.0153
    1DIPC   GL213468  28.149   7.685   6.221 -0.0872 -0.0616  0.2603
    1DIPC   C1A13469  27.634   7.409   6.069  0.1404 -0.0682 -0.0961
    1DIPC   D2A13470  27.305   7.559   5.904 -0.1339 -0.3114  0.2039
    1DIPC   D3A13471  27.296   7.345   5.517  0.0817  0.1054 -0.2386
    1DIPC   C4A13472  26.939   7.308   5.233 -0.2216 -0.0086 -0.3232
    1DIPC   C1B13473  28.110   7.647   5.785 -0.0040 -0.0747 -0.2522
    1DIPC   D2B13474  27.746   7.357   5.544 -0.0839 -0.2633  0.0206
    1DIPC   D3B13475  27.935   7.052   5.414 -0.2636 -0.1585 -0.1145
    1DIPC   C4B13476  28.271   6.713   5.639 -0.2728  0.0199  0.2131
    1DIPC   NC313477  17.869  10.107   6.679 -0.0612  0.0425 -0.0205
    1DIPC   PO413478  17.709  10.565   6.472 -0.2105  0.2758 -0.0936
    1DIPC   GL113479  17.785  10.538   5.952  0.2260 -0.1012  0.1835
    1DIPC   GL213480  17.975  10.829   5.693  0.2888  0.2981 -0.3340
    1DIPC   C1A13481  17.529  10.591   5.562 -0.0509 -0.0876 -0.0708
    1DIPC   D2A13482  17.448  10.883   5.251  0.1670 -0.1495  0.2252
    1DIPC   D3A13483  17.082  10.588   5.221 -0.1950 -0.2935 -0.0618
    1DIPC   C4A13484  16.867  10.553   4.899  0.2228  0.6149  0.0328
    1DIPC   C1B13485  18.030  10.820   5.254  0.1429  0.0767  0.2403
    1DIPC   D2B13486  18.146  11.003   4.882 -0.1320  0.0943 -0.0350
    1DIPC   D3B13487  17.916  11.338   4.963  0.0333 -0.0336  0.0983
    1DIPC   C4B13488  17.688  11.501   4.669 -0.1402  0.1466 -0.1278
    1DIPC   NC313489  23.223   2.335   6.895  0.1647  0.0165  0.0084
    1DIPC   PO413490  23.207   2.657   6.916  0.2010  0.2161  0.1075
    1DIPC   GL113491  23.384   2.882   6.622  0.2868 -0.1391  0.2199
    1DIPC   GL213492  23.099   2.837   6.481 -0.0908 -0.0641  0.0010
    1DIPC   C1A13493  23.504   2.922   6.233 -0.1326 -0.2076  0.1004
    1DIPC   D2A13494  23.490   2.792   5.724 -0.3202  0.1055 -0.0040
    1DIPC   D3A13495  23.157   2.710   5.433  0.0884  0.1264 -0.0864
    1DIPC   C4A13496  23.243   2.236   5.167  0.3056 -0.3718 -0.1325
    1DIPC   C1B13497  23.084   2.933   5.990 -0.1571  0.0064 -0.3936
    1DIPC   D2B13498  23.207   3.178   5.590  0.0524 -0.1257  0.0619
    1DIPC   D3B13499  23.501   3.190   5.273 -0.4492 -0.1761 -0.0915
    1DIPC   C4B13500  23.578   3.520   4.907 -0.3455 -0.1011  0.1860
    1DIPC   NC313501   8.273   5.009   6.902  0.3090  0.1242  0.0260
    1DIPC   PO413502   8.328   5.047   6.438 -0.2262  0.1011 -0.1361
    1DIPC   GL113503   8.104   5.242   6.013  0.4856 -0.2352  0.2671
    1DIPC   GL213504   7.828   5.372   6.070 -0.0225 -0.1218 -0.3646
    1DIPC   C1A13505   8.093   5.242   5.574  0.1297 -0.0813 -0.0177
    1DIPC   D2A13506   8.083   5.332   5.115 -0.1306 -0.0922  0.2506
    1DIPC   D3A13507   8.310   5.026   4.892  0.1956  0.1274 -0.4808
    1DIPC   C4A13508   8.535   4.667   4.988 -0.1235 -0.1551  0.2315
    1DIPC   C1B13509   7.435   5.525   5.962  0.0562  0.2154 -0.5618
    1DIPC   D2B13510   7.067   5.733   5.845  0.4468 -0.0838 -0.1069
    1DIPC   D3B13511   7.276   5.679   5.461 -0.1146  0.2068 -0.0278
    1DIPC   C4B13512   7.067   5.504   5.118  0.1909  0.0022 -0.1187
    1DIPC   NC313513  23.868   6.732   6.425 -0.1449 -0.0376  0.1742
    1DIPC   PO413514  23.661   6.991   6.038  0.0959  0.4758 -0.0566
    1DIPC   GL113515  23.532   6.921   5.694 -0.0638  0.2845 -0.1014
    1DIPC   GL213516  23.216   6.826   5.731  0.2465  0.2442  0.1259
    1DIPC   C1A13517  23.395   7.102   5.328  0.1219 -0.0455 -0.2518
    1DIPC   D2A13518  23.348   7.411   5.020 -0.0596 -0.1686 -0.1079
    1DIPC   D3A13519  22.947   7.288   5.032  0.1064 -0.0597 -0.0649
    1DIPC   C4A13520  22.758   7.078   4.688 -0.1638 -0.2444 -0.1327
    1DIPC   C1B13521  23.315   6.596   5.290  0.0421 -0.1717  0.0783
    1DIPC   D2B13522  23.377   6.478   4.904  0.0026 -0.0686 -0.0172
    1DIPC   D3B13523  22.985   6.410   4.618  0.3191  0.0541 -0.0787
    1DIPC   C4B13524  22.868   6.665   4.227  0.0670 -0.0357 -0.0965
    1DIPC   NC313525   8.757   3.772   6.520  0.3730 -0.1225  0.1153
    1DIPC   PO413526   9.189   3.861   6.471  0.1515 -0.1103  0.4268
    1DIPC   GL113527   8.897   3.989   6.095 -0.1134  0.0861  0.2220
    1DIPC   GL213528   8.982   3.643   5.986  0.5569 -0.0174 -0.0638
    1DIPC   C1A13529   8.757   4.385   6.000  0.0961  0.1852  0.0173
    1DIPC   D2A13530   8.468   4.813   5.990  0.0111  0.0019  0.3330
    1DIPC   D3A13531   8.541   5.040   5.727 -0.2125 -0.2939 -0.0060
    1DIPC   C4A13532   8.509   4.942   5.383 -0.2641 -0.0355  0.2627
    1DIPC   C1B13533   9.083   3.934   5.588  0.1159  0.2712  0.3936
    1DIPC   D2B13534   8.815   4.099   5.333  0.1552 -0.1972  0.2585
    1DIPC   D3B13535   8.913   4.345   4.952 -0.0757  0.0073  0.0680
    1DIPC   C4B13536   8.928   4.531   4.561  0.2023 -0.2558  0.2793
    1DIPC   NC313537  12.477  12.919   7.275  0.1164 -0.2912  0.0337
    1DIPC   PO413538  12.824  12.984   6.976 -0.0672  0.0728 -0.0949
    1DIPC   GL113539  12.573  13.312   6.914  0.2237 -0.0266 -0.1158
    1DIPC   GL213540  12.767  13.450   6.730 -0.1213  0.1948  0.1476
    1DIPC   C1A13541  12.308  13.591   6.697 -0.0163 -0.1273 -0.0146
    1DIPC   D2A13542  11.879  13.679   6.793  0.1517 -0.1800 -0.0156
    1DIPC   D3A13543  11.603  13.982   7.045 -0.0332 -0.0160 -0.1127
    1DIPC   C4A13544  11.415  14.173   6.734  0.1443  0.2659  0.2893
    1DIPC   C1B13545  12.522  13.281   6.393  0.0863 -0.0494 -0.1470
    1DIPC   D2B13546  12.177  13.211   6.025 -0.0405  0.2854 -0.5610
    1DIPC   D3B13547  12.586  13.358   5.891 -0.0018  0.0297  0.1356
    1DIPC   C4B13548  12.821  13.211   5.604 -0.0126  0.1870 -0.0691
    1DIPC   NC313549   9.016  21.163   6.229  0.0584 -0.2157  0.0864
    1DIPC   PO413550   8.631  21.110   5.902 -0.1648 -0.1071  0.2124
    1DIPC   GL113551   8.627  21.557   5.647 -0.4832 -0.1211 -0.0142
    1DIPC   GL213552   8.418  21.471   5.367 -0.3449 -0.0829  0.1647
    1DIPC   C1A13553   8.741  21.915   5.464 -0.0275 -0.4682 -0.4407
    1DIPC   D2A13554   9.032  22.218   5.193  0.0198  0.1989  0.1523
    1DIPC   D3A13555   8.882  22.350   4.748  0.0864 -0.0264  0.4129
    1DIPC   C4A13556   8.996  22.173   4.319 -0.2105 -0.0213 -0.1065
    1DIPC   C1B13557   8.706  21.587   5.085  0.1720 -0.1005  0.0080
    1DIPC   D2B13558   8.644  21.847   4.631 -0.0580 -0.2709 -0.2552
    1DIPC   D3B13559   8.728  21.558   4.365 -0.0686 -0.3045  0.1759
    1DIPC   C4B13560   8.568  21.670   3.969 -0.0915 -0.0091 -0.1056
    1DIPC   NC313561   0.379   8.097   7.560 -0.0907 -0.1025  0.2296
    1DIPC   PO413562   0.476   8.114   7.041 -0.0819  0.0292 -0.1154
    1DIPC   GL113563   0.577   8.341   6.560  0.0164  0.1533 -0.1258
    1DIPC   GL213564   0.495   8.595   6.571  0.2977 -0.3698 -0.2958
    1DIPC   C1A13565   0.674   8.195   6.148 -0.0978 -0.1772  0.1240
    1DIPC   D2A13566   0.895   8.353   5.831 -0.0453  0.1454  0.1003
    1DIPC   D3A13567   0.620   8.145   5.644 -0.1574  0.2253  0.0891
    1DIPC   C4A13568   0.563   7.800   5.845 -0.3158  0.4038 -0.0777
    1DIPC   C1B13569   0.564   8.675   6.133  0.0607 -0.0062 -0.1042
    1DIPC   D2B13570   0.531   8.700   5.677 -0.0292  0.3183  0.0818
    1DIPC   D3B13571   0.642   8.989   5.340 -0.2882 -0.2082 -0.0853
    1DIPC   C4B13572   1.006   9.266   5.182  0.1704 -0.2571  0.3887
    1DIPC   NC313573  30.256   4.949   6.844 -0.1431 -0.1543  0.0137
    1DIPC   PO413574  30.088   5.260   6.539  0.0045 -0.2246 -0.2189
    1DIPC   GL113575  30.213   5.183   6.112  0.2628 -0.0862 -0.1136
    1DIPC   GL213576  29.891   5.312   5.979  0.1593  0.1480 -0.0515
    1DIPC   C1A13577  30.192   5.025   5.702 -0.2677  0.0639 -0.1076
    1DIPC   D2A13578  30.067   4.847   5.317 -0.3339 -0.1434 -0.1257
    1DIPC   D3A13579  30.260   4.859   4.966  0.1061 -0.1024  0.1156
    1DIPC   C4A13580   0.142   4.359   4.999 -0.0552 -0.5145 -0.0275
    1DIPC   C1B13581  29.871   5.800   5.831 -0.0048 -0.4531  0.0323
    1DIPC   D2B13582  29.544   6.146   5.768 -0.0643  0.0966  0.3687
    1DIPC   D3B13583  29.699   5.998   5.359  0.0781  0.1701  0.0972
    1DIPC   C4B13584  29.946   6.380   5.199  0.0578  0.1056  0.0517
    1DIPC   NC313585  24.821   3.157   7.436  0.1240  0.3139 -0.1920
    1DIPC   PO413586  24.704   3.615   7.261 -0.1822  0.0356 -0.0532
    1DIPC   GL113587  24.828   3.826   6.886 -0.2156  0.1753  0.3428
    1DIPC   GL213588  25.087   3.697   6.718 -0.3428 -0.1644 -0.0079
    1DIPC   C1A13589  24.725   3.940   6.466 -0.0074 -0.0926 -0.1759
    1DIPC   D2A13590  24.664   4.312   6.162  0.0804  0.1506  0.0940
    1DIPC   D3A13591  24.908   4.587   6.409 -0.0583  0.0438  0.1790
    1DIPC   C4A13592  24.738   4.967   6.396 -0.2481  0.1294  0.2156
    1DIPC   C1B13593  25.227   3.687   6.344 -0.1766 -0.0470  0.1747
    1DIPC   D2B13594  25.191   3.549   5.840 -0.0762 -0.0557 -0.1859
    1DIPC   D3B13595  25.462   3.731   5.636  0.2607 -0.0734  0.4802
    1DIPC   C4B13596  25.386   4.211   5.585 -0.3936 -0.0873 -0.0035
    1DIPC   NC313597   8.602   8.589   6.728  0.1402  0.3728  0.1446
    1DIPC   PO413598   8.508   8.997   6.405  0.1386  0.0299 -0.4006
    1DIPC   GL113599   8.600   8.807   6.120 -0.1242 -0.3311 -0.4503
    1DIPC   GL213600   8.641   8.489   6.190  0.0415  0.2210  0.0353
    1DIPC   C1A13601   8.573   8.895   5.713 -0.1457 -0.0184  0.4253
    1DIPC   D2A13602   8.451   9.285   5.424  0.2450 -0.1072 -0.0038
    1DIPC   D3A13603   8.622   8.995   5.196  0.0257  0.2022 -0.0258
    1DIPC   C4A13604   8.678   8.667   4.858  0.0356 -0.0082  0.3497
    1DIPC   C1B13605   8.461   8.298   5.744 -0.1133 -0.1847  0.0922
    1DIPC   D2B13606   8.522   8.476   5.356  0.1444 -0.3252 -0.0359
    1DIPC   D3B13607   8.792   8.212   5.005 -0.1080  0.3020  0.2391
    1DIPC   C4B13608   8.933   7.922   4.708 -0.0919 -0.0159  0.1036
    1DIPC   NC313609  17.022  14.588   6.504  0.0284 -0.3184 -0.2298
    1DIPC   PO413610  17.127  15.019   6.605 -0.0380 -0.1326  0.1329
    1DIPC   GL113611  17.396  15.060   6.238  0.2380  0.0864  0.0516
    1DIPC   GL213612  17.319  14.824   6.099  0.2532 -0.1905 -0.0307
    1DIPC   C1A13613  17.203  15.261   5.774  0.1816 -0.4068 -0.0039
    1DIPC   D2A13614  16.963  15.268   5.363 -0.1847 -0.0887 -0.1752
    1DIPC   D3A13615  16.515  15.333   5.477 -0.2477 -0.0299  0.1747
    1DIPC   C4A13616  16.361  15.432   5.075 -0.2103  0.0412 -0.1180
    1DIPC   C1B13617  17.038  14.736   5.676 -0.0511 -0.2955  0.0776
    1DIPC   D2B13618  16.695  14.685   5.315  0.0469 -0.1679 -0.0662
    1DIPC   D3B13619  16.447  14.433   5.468 -0.0748  0.0095 -0.1388
    1DIPC   C4B13620  16.254  14.094   5.306 -0.1055  0.3146  0.3691
    1DIPC   NC313621  21.291  20.580   5.857  0.1542 -0.0571 -0.0460
    1DIPC   PO413622  20.956  20.288   5.785  0.0132  0.2013 -0.0182
    1DIPC   GL113623  20.929  20.346   5.305  0.1375 -0.3148 -0.1199
    1DIPC   GL213624  20.621  20.419   5.226 -0.3101  0.2338  0.1051
    1DIPC   C1A13625  21.082  20.129   4.903 -0.1787 -0.2181 -0.1466
    1DIPC   D2A13626  21.306  20.036   4.537  0.0623 -0.2075  0.0590
    1DIPC   D3A13627  21.141  20.451   4.373 -0.1797 -0.1096 -0.0190
    1DIPC   C4A13628  21.004  20.780   4.564 -0.4541 -0.0240 -0.2376
    1DIPC   C1B13629  20.625  20.534   4.805 -0.2151  0.1212  0.1099
    1DIPC   D2B13630  20.611  20.552   4.336 -0.0575  0.1274 -0.3535
    1DIPC   D3B13631  20.770  20.128   4.506 -0.1447  0.1528 -0.2155
    1DIPC   C4B13632  21.012  19.837   4.228  0.1813 -0.1884  0.2358
    1DIPC   NC313633  21.597  11.366   6.050 -0.2031  0.0736  0.1751
    1DIPC   PO413634  21.320  11.260   5.714  0.2308  0.0877 -0.0858
    1DIPC   GL113635  21.029  11.388   5.367  0.2223  0.2061 -0.0120
    1DIPC   GL213636  21.315  11.618   5.342  0.2023  0.0434 -0.0501
    1DIPC   C1A13637  21.052  11.437   4.965  0.4168 -0.0737 -0.1206
    1DIPC   D2A13638  20.824  11.485   4.587  0.0797 -0.2382  0.0290
    1DIPC   D3A13639  21.128  11.654   4.440 -0.2990  0.1645  0.1724
    1DIPC   C4A13640  21.412  12.093   4.573 -0.2026 -0.1288  0.2771
    1DIPC   C1B13641  21.474  11.604   4.905 -0.2808  0.0280  0.2130
    1DIPC   D2B13642  21.646  11.596   4.484  0.0229 -0.0270  0.0386
    1DIPC   D3B13643  21.676  11.239   4.423 -0.2041  0.1591  0.0338
    1DIPC   C4B13644  21.241  11.058   4.297 -0.0445 -0.3786  0.0254
    1DIPC   NC313645  13.198   7.541   6.283 -0.5283 -0.1655 -0.1695
    1DIPC   PO413646  12.914   7.259   6.038 -0.1557 -0.0852  0.2051
    1DIPC   GL113647  12.612   7.263   5.649 -0.0515 -0.2077 -0.0385
    1DIPC   GL213648  12.611   7.588   5.682 -0.0038  0.2470 -0.1891
    1DIPC   C1A13649  12.186   7.389   5.422  0.0618 -0.1860  0.1114
    1DIPC   D2A13650  12.208   7.348   4.937  0.0668  0.0163 -0.0161
    1DIPC   D3A13651  12.106   7.744   4.784  0.3580 -0.1366  0.0242
    1DIPC   C4A13652  12.445   8.169   4.667  0.0940  0.2395  0.0007
    1DIPC   C1B13653  12.554   7.725   5.170 -0.0398 -0.3000  0.2358
    1DIPC   D2B13654  12.881   8.024   4.907 -0.2381  0.0783 -0.1348
    1DIPC   D3B13655  12.685   8.470   4.988 -0.3419  0.2847 -0.0242
    1DIPC   C4B13656  12.242   8.597   4.841 -0.0768 -0.0033 -0.0649
    1DIPC   NC313657  23.804   8.732   5.871 -0.0885  0.1964 -0.0765
    1DIPC   PO413658  24.234   8.544   5.709  0.1496 -0.2237  0.0233
    1DIPC   GL113659  24.116   8.287   5.382  0.2090 -0.1671 -0.0002
    1DIPC   GL213660  24.031   7.956   5.342 -0.3326  0.0581  0.4858
    1DIPC   C1A13661  24.422   8.462   5.034  0.0663  0.2125 -0.1522
    1DIPC   D2A13662  24.567   8.685   4.710  0.2572  0.1047 -0.5128
    1DIPC   D3A13663  24.226   8.656   4.638  0.1974  0.1024 -0.2961
    1DIPC   C4A13664  24.028   8.853   4.233 -0.0984  0.3422 -0.0774
    1DIPC   C1B13665  24.117   8.092   4.903 -0.0712  0.2167  0.0583
    1DIPC   D2B13666  24.394   8.079   4.502  0.1226 -0.1724  0.1505
    1DIPC   D3B13667  24.398   7.745   4.209  0.1025 -0.1727 -0.1745
    1DIPC   C4B13668  24.325   7.890   3.780 -0.2337  0.1800 -0.1632
    1DIPC   NC313669  12.187   2.906   6.425  0.0596 -0.1808  0.0219
    1DIPC   PO413670  12.025   3.152   6.012 -0.0941  0.0689 -0.0083
    1DIPC   GL113671  12.107   2.839   5.746 -0.4082 -0.0418 -0.1604
    1DIPC   GL213672  12.092   3.017   5.430  0.2418 -0.0347  0.0267
    1DIPC   C1A13673  11.999   2.492   5.623  0.1265 -0.0109 -0.1644
    1DIPC   D2A13674  12.095   2.189   5.358  0.0828  0.0543 -0.0303
    1DIPC   D3A13675  11.667   2.099   5.509 -0.2184  0.0515 -0.2040
    1DIPC   C4A13676  11.376   1.873   5.273  0.3181 -0.1128 -0.0573
    1DIPC   C1B13677  12.124   2.891   4.962  0.2777  0.3883 -0.3306
    1DIPC   D2B13678  12.155   2.429   4.937 -0.1178 -0.1327  0.1997
    1DIPC   D3B13679  12.659   2.416   4.998 -0.0117 -0.1512 -0.0085
    1DIPC   C4B13680  12.725   2.213   5.411 -0.0263 -0.0799 -0.3644
    1DIPC   NC313681   6.299  26.966   6.676  0.0268  0.0898 -0.1319
    1DIPC   PO413682   5.975  26.999   6.557  0.4710  0.0930 -0.1461
    1DIPC   GL113683   6.185  26.764   6.205  0.3962 -0.2009  0.1293
    1DIPC   GL213684   6.502  26.625   6.314  0.0829  0.1564  0.0419
    1DIPC   C1A13685   6.555  26.831   5.857  0.3760  0.1964 -0.0504
    1DIPC   D2A13686   6.678  27.062   5.558 -0.0093 -0.1740 -0.1762
    1DIPC   D3A13687   6.463  27.010   5.246  0.0856 -0.1499  0.2716
    1DIPC   C4A13688   6.424  26.972   4.796  0.4667  0.0479 -0.2012
    1DIPC   C1B13689   6.469  26.353   6.009  0.0282 -0.2383 -0.1220
    1DIPC   D2B13690   6.321  26.099   5.712 -0.1940  0.0123  0.0278
    1DIPC   D3B13691   6.438  26.480   5.451  0.0014 -0.2107 -0.3678
    1DIPC   C4B13692   6.049  26.655   5.100 -0.1692 -0.2132 -0.1277
    1DIPC   NC313693   2.063   6.647   6.428  0.0281  0.1494  0.1832
    1DIPC   PO413694   1.991   6.199   6.334  0.2281 -0.1387 -0.0707
    1DIPC   GL113695   2.035   6.460   5.899  0.0936 -0.0579  0.2664
    1DIPC   GL213696   2.291   6.667   5.990  0.1105 -0.0003  0.0758
    1DIPC   C1A13697   1.897   6.449   5.507 -0.1246 -0.0868  0.3804
    1DIPC   D2A13698   1.635   6.616   5.178 -0.4488  0.0976  0.0503
    1DIPC   D3A13699   1.422   6.933   5.260  0.3830 -0.1732  0.0400
    1DIPC   C4A13700   1.620   7.287   5.298  0.1430 -0.0955  0.0149
    1DIPC   C1B13701   1.975   6.900   5.660  0.4111  0.0638 -0.3342
    1DIPC   D2B13702   1.480   7.046   5.745 -0.3553 -0.0731  0.0821
    1DIPC   D3B13703   1.345   6.616   5.735 -0.1699 -0.0768 -0.0859
    1DIPC   C4B13704   1.160   6.456   5.391  0.1783  0.3963  0.0256
    1DIPC   NC313705   6.430  16.434   6.175  0.0098  0.2308 -0.1018
    1DIPC   PO413706   5.969  16.370   6.226 -0.0873  0.1054  0.1289
    1DIPC   GL113707   6.175  16.223   5.830 -0.0316 -0.1212 -0.1143
    1DIPC   GL213708   6.252  15.858   5.871 -0.1078 -0.3902  0.0659
    1DIPC   C1A13709   5.983  16.080   5.454  0.3393 -0.2314  0.2110
    1DIPC   D2A13710   5.514  16.002   5.445  0.0132 -0.0098 -0.1706
    1DIPC   D3A13711   5.205  16.201   5.547 -0.1444  0.0850  0.0669
    1DIPC   C4A13712   4.918  16.517   5.364  0.0110  0.0247  0.1578
    1DIPC   C1B13713   6.486  15.948   5.415 -0.0119  0.1162 -0.2808
    1DIPC   D2B13714   6.398  15.792   4.998  0.0038  0.1990 -0.1284
    1DIPC   D3B13715   6.181  15.892   4.613 -0.1133  0.0486  0.2132
    1DIPC   C4B13716   5.777  16.041   4.592 -0.0148 -0.0585 -0.2782
    1DIPC   NC313717   3.921  24.048   6.514 -0.2473  0.3214  0.0782
    1DIPC   PO413718   3.747  24.348   6.776 -0.1140 -0.0510  0.0946
    1DIPC   GL113719   3.545  24.363   6.345 -0.0915 -0.0145  0.1807
    1DIPC   GL213720   3.816  24.361   6.088  0.0338  0.2094  0.6964
    1DIPC   C1A13721   3.429  24.633   5.879  0.0952 -0.2658  0.1504
    1DIPC   D2A13722   3.289  24.644   5.494  0.2396 -0.0228  0.2148
    1DIPC   D3A13723   3.344  24.216   5.664 -0.4025 -0.2121  0.0765
    1DIPC   C4A13724   3.369  23.956   6.054 -0.2702  0.1310 -0.2593
    1DIPC   C1B13725   4.155  23.959   5.954 -0.0133  0.0843 -0.0589
    1DIPC   D2B13726   4.540  24.060   5.914 -0.1800 -0.1307 -0.0097
    1DIPC   D3B13727   4.611  23.637   5.828 -0.0741  0.1823 -0.1896
    1DIPC   C4B13728   4.514  23.555   5.421 -0.0418  0.2437 -0.0385
    1DIPC   NC313729  15.643  24.360   6.428 -0.3243 -0.0290 -0.2966
    1DIPC   PO413730  15.211  24.172   6.163 -0.0888  0.2208 -0.0278
    1DIPC   GL113731  15.246  24.573   6.056 -0.1213 -0.0527  0.4267
    1DIPC   GL213732  15.170  24.436   5.680 -0.2590 -0.0260 -0.2374
    1DIPC   C1A13733  15.217  24.913   5.771  0.2040 -0.1839 -0.0164
    1DIPC   D2A13734  15.568  25.191   5.753 -0.1112  0.1204  0.0177
    1DIPC   D3A13735  15.861  25.428   5.505 -0.0501  0.0911 -0.1819
    1DIPC   C4A13736  15.881  25.682   5.170 -0.1111 -0.0582  0.0579
    1DIPC   C1B13737  15.252  24.623   5.333 -0.1402  0.0077 -0.0984
    1DIPC   D2B13738  14.933  24.816   5.064 -0.2101  0.0130  0.3342
    1DIPC   D3B13739  14.751  24.875   4.581  0.2470  0.0122 -0.0940
    1DIPC   C4B13740  14.315  24.910   4.527  0.1084  0.2619  0.0527
    1DIPC   NC313741  12.562  14.814   6.932 -0.0684  0.2314  0.0604
    1DIPC   PO413742  12.351  15.223   6.738  0.0266  0.1248 -0.1384
    1DIPC   GL113743  12.228  15.251   6.326 -0.0251  0.0412  0.1341
    1DIPC   GL213744  11.910  15.329   6.322 -0.2436  0.1447 -0.0313
    1DIPC   C1A13745  12.257  14.842   6.185  0.2773  0.0921  0.0322
    1DIPC   D2A13746  12.122  14.682   5.891  0.0542 -0.0560  0.0815
    1DIPC   D3A13747  12.355  14.355   5.954  0.3282  0.0906  0.0458
    1DIPC   C4A13748  12.537  14.420   5.501 -0.1000 -0.1220  0.1048
    1DIPC   C1B13749  12.015  15.189   5.897 -0.0916 -0.0033  0.2441
    1DIPC   D2B13750  12.008  15.105   5.395 -0.2609  0.0034 -0.0892
    1DIPC   D3B13751  12.094  14.665   5.406 -0.1084  0.2088  0.1241
    1DIPC   C4B13752  11.686  14.440   5.228  0.4248  0.2617  0.2917
    1DIPC   NC313753  25.159   4.347   7.425 -0.3804  0.2304  0.2002
    1DIPC   PO413754  25.611   4.300   7.430 -0.0617 -0.1267  0.1101
    1DIPC   GL113755  25.614   4.182   6.935  0.0221  0.0614  0.1214
    1DIPC   GL213756  25.913   4.169   6.918  0.0324  0.0054  0.0226
    1DIPC   C1A13757  25.469   4.139   6.553 -0.0069  0.1668 -0.0687
    1DIPC   D2A13758  25.583   3.986   6.075  0.0118 -0.0376 -0.1011
    1DIPC   D3A13759  25.131   4.037   5.980  0.1250  0.3531 -0.0976
    1DIPC   C4A13760  24.897   4.229   5.712 -0.3324  0.1201  0.0234
    1DIPC   C1B13761  25.771   4.534   6.726  0.0611 -0.2536 -0.0459
    1DIPC   D2B13762  25.491   4.685   6.401 -0.1160  0.0679  0.4723
    1DIPC   D3B13763  25.287   4.469   6.115  0.0426  0.2918 -0.2103
    1DIPC   C4B13764  24.932   4.682   5.898 -0.1571 -0.2347  0.0430
    1DIPC   NC313765  26.839   8.343   6.334 -0.3144 -0.3338  0.0465
    1DIPC   PO413766  26.363   8.400   6.220 -0.0932  0.2214  0.0463
    1DIPC   GL113767  26.157   8.242   5.931  0.0020 -0.0465  0.0551
    1DIPC   GL213768  25.757   8.313   5.871  0.0103  0.0933  0.0659
    1DIPC   C1A13769  26.073   7.969   5.646  0.4273  0.0369 -0.1057
    1DIPC   D2A13770  26.162   7.908   5.243 -0.0615 -0.1628 -0.2501
    1DIPC   D3A13771  25.900   8.188   5.090  0.0508 -0.1422  0.2410
    1DIPC   C4A13772  26.097   8.351   4.665  0.0554 -0.1977  0.1704
    1DIPC   C1B13773  25.920   8.534   5.501 -0.0627 -0.2923  0.3153
    1DIPC   D2B13774  25.690   8.657   5.144  0.1758 -0.1426 -0.1693
    1DIPC   D3B13775  26.156   8.659   5.081 -0.3490  0.1868 -0.1743
    1DIPC   C4B13776  26.301   8.867   4.717  0.1023  0.3876  0.0986
    1DIPC   NC313777   3.038   0.399   7.712  0.3680  0.0313  0.3124
    1DIPC   PO413778   3.285   0.341   7.370  0.1119  0.0997  0.3016
    1DIPC   GL113779   3.085   0.367   6.930 -0.1843 -0.1761 -0.1915
    1DIPC   GL213780   3.133   0.138   6.832 -0.0336  0.0421 -0.2529
    1DIPC   C1A13781   3.107   0.611   6.572  0.0393  0.0683 -0.2176
    1DIPC   D2A13782   3.307   1.094   6.397  0.0194 -0.0168  0.0678
    1DIPC   D3A13783   3.180   0.878   5.990 -0.0170  0.1019  0.2757
    1DIPC   C4A13784   3.054   0.415   6.086 -0.2178 -0.3362  0.0660
    1DIPC   C1B13785   2.856   0.068   6.391  0.2851 -0.2254  0.0257
    1DIPC   D2B13786   2.814  29.982   6.267  0.0552 -0.2840  0.0980
    1DIPC   D3B13787   2.869  29.903   5.895 -0.0634 -0.1749  0.0525
    1DIPC   C4B13788   3.220  29.531   5.689 -0.2000  0.0882 -0.3423
    1DIPC   NC313789  22.101  26.309   6.901  0.0616  0.1005 -0.1782
    1DIPC   PO413790  22.268  26.291   6.490  0.0844  0.0741 -0.0098
    1DIPC   GL113791  22.473  26.339   6.025  0.3109  0.1453 -0.1978
    1DIPC   GL213792  22.183  26.477   5.896  0.1202 -0.0966 -0.1820
    1DIPC   C1A13793  22.819  26.218   5.735  0.0061 -0.0724  0.2965
    1DIPC   D2A13794  22.934  26.242   5.278  0.2802  0.2649  0.0165
    1DIPC   D3A13795  23.281  26.334   5.511 -0.0968 -0.0122 -0.3312
    1DIPC   C4A13796  23.784  26.153   5.422  0.3031  0.2309  0.2393
    1DIPC   C1B13797  22.136  26.589   5.406 -0.0878 -0.1588 -0.0420
    1DIPC   D2B13798  22.195  26.644   4.978 -0.2333  0.3223  0.0289
    1DIPC   D3B13799  22.640  26.553   5.096  0.0008  0.1610  0.1616
    1DIPC   C4B13800  22.734  26.734   5.477  0.1648  0.0438  0.1365
    1DIPC   NC313801  17.068  26.471   6.718  0.1880 -0.0520  0.0219
    1DIPC   PO413802  16.800  26.235   6.493  0.0106  0.3565 -0.0432
    1DIPC   GL113803  16.582  26.310   6.171 -0.0198  0.1141 -0.2670
    1DIPC   GL213804  16.317  26.570   6.123 -0.3528  0.0383 -0.1206
    1DIPC   C1A13805  16.715  26.568   5.804 -0.1612 -0.0545 -0.0326
    1DIPC   D2A13806  16.740  26.498   5.374 -0.1313  0.3339  0.0165
    1DIPC   D3A13807  16.910  26.527   4.932 -0.0009  0.0242 -0.1642
    1DIPC   C4A13808  17.170  26.908   4.759  0.2756  0.0817 -0.0530
    1DIPC   C1B13809  16.225  26.957   5.973 -0.3589 -0.1236  0.0633
    1DIPC   D2B13810  16.016  27.380   5.988  0.1201 -0.1059  0.1805
    1DIPC   D3B13811  15.737  27.172   5.728 -0.2648  0.0731 -0.2180
    1DIPC   C4B13812  15.965  26.816   5.511 -0.0526  0.1049 -0.0312
    1DIPC   NC313813   9.400  28.189   6.765  0.1480 -0.1372  0.0878
    1DIPC   PO413814   9.717  28.011   6.864 -0.0211  0.0484 -0.3530
    1DIPC   GL113815   9.780  28.050   6.446 -0.1454  0.0022  0.1305
    1DIPC   GL213816  10.116  28.230   6.340  0.1240  0.0089 -0.0048
    1DIPC   C1A13817   9.576  28.161   6.054  0.1280  0.0452  0.1303
    1DIPC   D2A13818   9.783  28.054   5.699  0.1049  0.2175 -0.0979
    1DIPC   D3A13819  10.070  27.797   5.908  0.0311  0.2079  0.0373
    1DIPC   C4A13820  10.515  27.889   6.018  0.1364 -0.3162  0.2399
    1DIPC   C1B13821  10.395  28.505   6.291 -0.0795 -0.1621 -0.0177
    1DIPC   D2B13822  10.493  28.686   5.884 -0.0238  0.0054  0.2444
    1DIPC   D3B13823  10.614  28.598   5.417 -0.0961  0.1343 -0.6110
    1DIPC   C4B13824  10.298  28.646   5.134  0.2096  0.0641  0.0375
    1DIPC   NC313825  18.351   8.219   5.632  0.1561 -0.1074  0.1098
    1DIPC   PO413826  17.874   8.135   5.664  0.0543 -0.0089  0.0851
    1DIPC   GL113827  17.668   8.060   5.227  0.1457 -0.2005  0.1191
    1DIPC   GL213828  17.800   7.829   5.083  0.3927  0.1279 -0.1183
    1DIPC   C1A13829  17.426   8.228   4.860 -0.0930  0.0355 -0.0425
    1DIPC   D2A13830  17.337   8.589   4.539 -0.2596 -0.0743  0.3001
    1DIPC   D3A13831  17.617   8.531   4.157 -0.1405  0.0960  0.1032
    1DIPC   C4A13832  17.981   8.853   4.214  0.3088  0.1690  0.0988
    1DIPC   C1B13833  17.933   8.111   4.748 -0.0270  0.1161  0.1066
    1DIPC   D2B13834  18.028   8.227   4.242  0.1447 -0.0367 -0.1241
    1DIPC   D3B13835  18.397   8.642   4.328 -0.1229 -0.3899  0.0836
    1DIPC   C4B13836  18.840   8.820   4.474  0.2205 -0.1147 -0.2382
    1DIPC   NC313837   8.717  18.894   5.884 -0.2934 -0.0922  0.3028
    1DIPC   PO413838   8.981  18.510   5.794  0.0633  0.1999 -0.1752
    1DIPC   GL113839   9.180  18.185   5.383 -0.0097 -0.3844  0.2299
    1DIPC   GL213840   9.427  18.095   5.548 -0.0223  0.0403  0.0706
    1DIPC   C1A13841   9.159  18.151   4.930 -0.1506  0.1001  0.1030
    1DIPC   D2A13842   8.934  18.109   4.480 -0.3522 -0.3598 -0.2456
    1DIPC   D3A13843   9.114  18.403   4.330  0.2516  0.0332 -0.1673
    1DIPC   C4A13844   9.018  18.714   4.596  0.5885  0.2314  0.2759
    1DIPC   C1B13845   9.564  17.849   5.168 -0.0544 -0.1838 -0.2298
    1DIPC   D2B13846   9.904  17.564   5.211  0.1185  0.0804 -0.0447
    1DIPC   D3B13847  10.241  17.293   4.975  0.1972 -0.0957  0.0446
    1DIPC   C4B13848  10.419  17.067   4.571  0.1628  0.2013  0.2308
    1DIPC   NC313849  13.875   1.466   6.451 -0.0763 -0.1176 -0.2373
    1DIPC   PO413850  13.866   1.845   6.637 -0.2808 -0.2069 -0.4215
    1DIPC   GL113851  13.752   2.209   6.299  0.2084  0.1320  0.3791
    1DIPC   GL213852  13.742   2.585   6.266 -0.0506 -0.0337 -0.1537
    1DIPC   C1A13853  13.745   2.204   5.903  0.2561 -0.2398  0.1590
    1DIPC   D2A13854  13.886   2.338   5.343 -0.1996  0.2533 -0.1335
    1DIPC   D3A13855  13.588   2.146   5.285  0.0181  0.0442 -0.3703
    1DIPC   C4A13856  13.212   2.169   5.524  0.1282  0.1956 -0.0146
    1DIPC   C1B13857  13.846   2.689   5.897 -0.1868  0.1452 -0.2248
    1DIPC   D2B13858  13.913   2.759   5.530 -0.1527  0.1350 -0.0942
    1DIPC   D3B13859  14.100   3.010   5.291 -0.2602  0.0031  0.0821
    1DIPC   C4B13860  14.397   3.025   4.980  0.3667 -0.3064 -0.0669
    1DIPC   NC313861  14.774  14.518   7.252 -0.1603 -0.1793 -0.0715
    1DIPC   PO413862  14.734  14.102   7.370 -0.1269 -0.0521 -0.0162
    1DIPC   GL113863  14.860  14.179   6.900  0.0162 -0.1047  0.0794
    1DIPC   GL213864  15.159  14.100   6.795  0.0072 -0.0696  0.0306
    1DIPC   C1A13865  14.846  14.429   6.513  0.1077  0.3382  0.0661
    1DIPC   D2A13866  14.884  14.797   6.239 -0.0526  0.0623 -0.1572
    1DIPC   D3A13867  14.988  14.395   5.959  0.1713  0.0770 -0.0232
    1DIPC   C4A13868  15.094  14.448   5.464 -0.1490 -0.1620  0.5536
    1DIPC   C1B13869  15.543  13.932   6.520  0.2413 -0.0276 -0.1669
    1DIPC   D2B13870  15.878  14.095   6.340 -0.0100 -0.1683 -0.0026
    1DIPC   D3B13871  15.506  13.995   5.964  0.0135  0.0998  0.2344
    1DIPC   C4B13872  15.715  13.823   5.525 -0.1261  0.0433 -0.0090
    1DIPC   NC313873  14.691  12.936   7.345  0.0572 -0.3870  0.1785
    1DIPC   PO413874  14.981  13.292   7.276 -0.3180 -0.2654 -0.3638
    1DIPC   GL113875  14.918  13.492   6.884  0.2502  0.0403  0.1250
    1DIPC   GL213876  14.665  13.643   6.879 -0.1804 -0.0101 -0.0548
    1DIPC   C1A13877  15.067  13.621   6.554 -0.0736 -0.0438  0.0984
    1DIPC   D2A13878  15.107  14.027   6.307 -0.1109 -0.1562  0.0986
    1DIPC   D3A13879  14.896  13.795   5.899  0.0977  0.1773  0.0833
    1DIPC   C4A13880  15.186  13.779   5.563 -0.2689 -0.1942 -0.2529
    1DIPC   C1B13881  14.579  13.860   6.424  0.1036 -0.2233 -0.6288
    1DIPC   D2B13882  14.571  14.213   6.135  0.1158 -0.2034 -0.0367
    1DIPC   D3B13883  14.179  14.076   6.093  0.1001  0.2872  0.0708
    1DIPC   C4B13884  13.877  14.342   6.193 -0.0639  0.1330 -0.1734
    1DIPC   NC313885   4.569  29.813   7.667  0.0604  0.2217  0.2239
    1DIPC   PO413886   4.833  29.926   7.391 -0.1405 -0.2875 -0.1042
    1DIPC   GL113887   4.880  30.022   6.995 -0.1686  0.0368  0.1537
    1DIPC   GL213888   5.148  30.313   6.856 -0.0455 -0.2871  0.0661
    1DIPC   C1A13889   5.058  29.748   6.759  0.3767  0.0949  0.2816
    1DIPC   D2A13890   4.811  29.521   6.504 -0.0631  0.0862  0.2680
    1DIPC   D3A13891   4.621  29.207   6.685  0.0080  0.0037  0.0873
    1DIPC   C4A13892   4.448  28.879   6.370  0.0006  0.4237 -0.0141
    1DIPC   C1B13893   4.807  30.160   6.523 -0.2359 -0.2714 -0.0058
    1DIPC   D2B13894   4.830  29.928   6.181 -0.1694  0.0785  0.3785
    1DIPC   D3B13895   4.528  29.896   5.802 -0.1613  0.0112  0.1344
    1DIPC   C4B13896   4.053  29.858   5.721  0.0472 -0.1648 -0.1580
    1DIPC   NC313897  13.978   8.197   6.444  0.0884  0.1828  0.0785
    1DIPC   PO413898  13.972   7.716   6.411  0.1004 -0.1688 -0.0108
    1DIPC   GL113899  14.025   7.697   5.949 -0.1916  0.1867 -0.0588
    1DIPC   GL213900  13.948   8.078   5.893 -0.1614  0.2141 -0.0745
    1DIPC   C1A13901  13.991   7.586   5.535  0.4803  0.0665  0.2710
    1DIPC   D2A13902  13.867   7.767   5.190  0.2337  0.2696 -0.0011
    1DIPC   D3A13903  13.839   7.349   4.864 -0.1665 -0.1269  0.1976
    1DIPC   C4A13904  13.454   7.290   4.929  0.0227  0.2794  0.0851
    1DIPC   C1B13905  13.759   8.307   5.396  0.2657  0.3492 -0.1895
    1DIPC   D2B13906  13.672   8.252   4.963  0.0255  0.1391  0.0482
    1DIPC   D3B13907  13.395   7.840   4.992 -0.0070 -0.0823  0.0960
    1DIPC   C4B13908  13.177   7.640   4.658  0.0207 -0.0870  0.0933
    1DIPC   NC313909  18.169   4.866   6.181 -0.2857 -0.1543 -0.1962
    1DIPC   PO413910  18.562   5.187   6.296  0.0768  0.0673  0.0506
    1DIPC   GL113911  18.671   5.068   5.978 -0.0942 -0.0853 -0.1911
    1DIPC   GL213912  18.825   4.803   5.910 -0.0657  0.3166  0.3339
    1DIPC   C1A13913  18.577   5.125   5.623 -0.1904 -0.0039  0.2079
    1DIPC   D2A13914  18.802   5.009   5.230  0.0215  0.0787  0.3153
    1DIPC   D3A13915  18.882   5.384   5.064 -0.0282  0.0965  0.3989
    1DIPC   C4A13916  18.521   5.455   5.206 -0.0495 -0.2512  0.2724
    1DIPC   C1B13917  19.077   4.677   5.589  0.2669 -0.1669  0.6500
    1DIPC   D2B13918  19.359   4.572   5.283  0.0149  0.1666 -0.1578
    1DIPC   D3B13919  19.309   4.464   4.881 -0.0398 -0.3743 -0.2744
    1DIPC   C4B13920  19.535   4.184   4.611 -0.2313 -0.0922  0.0625
    1DIPC   NC313921  22.047  28.250   6.792  0.0235  0.0204  0.3365
    1DIPC   PO413922  22.285  27.753   6.749  0.0626 -0.0430 -0.3114
    1DIPC   GL113923  21.954  27.591   6.594  0.2489 -0.2915 -0.2541
    1DIPC   GL213924  22.009  27.631   6.221  0.1289 -0.2001  0.0568
    1DIPC   C1A13925  21.968  27.123   6.356 -0.1067 -0.2163  0.1553
    1DIPC   D2A13926  21.794  26.717   6.287 -0.0450  0.0331  0.2676
    1DIPC   D3A13927  21.807  26.839   5.922 -0.1346  0.2099 -0.2335
    1DIPC   C4A13928  21.836  27.066   5.552  0.0019 -0.0705 -0.0921
    1DIPC   C1B13929  21.797  27.833   5.861 -0.1114 -0.1172  0.2628
    1DIPC   D2B13930  21.643  27.882   5.392  0.0332  0.0437 -0.1705
    1DIPC   D3B13931  21.648  28.184   5.151  0.1162  0.2295  0.4000
    1DIPC   C4B13932  21.805  28.201   4.709  0.1948  0.2551 -0.0978
    1DIPC   NC313933  13.682  11.539   7.254 -0.2121 -0.0052 -0.1592
    1DIPC   PO413934  13.480  11.643   6.900 -0.0436 -0.0939  0.0108
    1DIPC   GL113935  13.642  11.575   6.447  0.0742  0.0103 -0.0068
    1DIPC   GL213936  13.389  11.413   6.439 -0.1050  0.1195 -0.1035
    1DIPC   C1A13937  13.711  11.531   5.993 -0.2453 -0.0702 -0.1618
    1DIPC   D2A13938  13.527  11.265   5.645 -0.2924  0.2211  0.0701
    1DIPC   D3A13939  13.667  11.344   5.305  0.0086  0.1147 -0.2666
    1DIPC   C4A13940  13.559  11.596   5.107 -0.2206 -0.1884 -0.3183
    1DIPC   C1B13941  13.430  11.148   6.140 -0.1357  0.0413  0.0454
    1DIPC   D2B13942  13.343  10.696   6.240  0.2274 -0.1934 -0.3154
    1DIPC   D3B13943  13.724  10.723   6.087  0.2227 -0.0864  0.1503
    1DIPC   C4B13944  13.982  10.469   6.224  0.0346 -0.0578 -0.0589
    1DIPC   NC313945  28.783   5.377   6.969  0.1107  0.0731  0.1317
    1DIPC   PO413946  28.885   5.006   7.064 -0.2746  0.1030  0.1386
    1DIPC   GL113947  28.660   4.945   6.581  0.0108 -0.2782 -0.1505
    1DIPC   GL213948  28.722   5.256   6.337 -0.0420 -0.0799 -0.1318
    1DIPC   C1A13949  28.241   5.108   6.587 -0.0413  0.0316  0.0673
    1DIPC   D2A13950  27.999   5.006   6.354  0.0955  0.0139 -0.1711
    1DIPC   D3A13951  27.774   5.401   6.229  0.2208  0.2453 -0.1983
    1DIPC   C4A13952  27.624   5.155   5.897 -0.0492  0.0500 -0.0886
    1DIPC   C1B13953  28.844   5.045   5.967  0.2009 -0.1141  0.1396
    1DIPC   D2B13954  28.983   4.751   5.758 -0.1439 -0.0165 -0.0240
    1DIPC   D3B13955  29.202   5.100   5.568 -0.0215 -0.0134  0.1602
    1DIPC   C4B13956  29.130   5.274   5.114  0.1584 -0.0069 -0.0170
    1DIPC   NC313957  18.627  23.268   6.364 -0.1280  0.1399  0.2206
    1DIPC   PO413958  18.338  23.611   6.264 -0.1161 -0.2123  0.4038
    1DIPC   GL113959  18.342  23.565   5.916 -0.1439 -0.1029  0.1098
    1DIPC   GL213960  18.690  23.707   5.839  0.1373  0.0242 -0.4631
    1DIPC   C1A13961  18.306  23.592   5.463  0.1487  0.2436 -0.1919
    1DIPC   D2A13962  17.953  23.470   5.221 -0.2038  0.2925  0.1061
    1DIPC   D3A13963  18.022  23.265   4.784  0.3008  0.1325 -0.0338
    1DIPC   C4A13964  18.444  23.097   4.607 -0.0038  0.2771  0.1160
    1DIPC   C1B13965  18.660  23.935   5.354  0.0185  0.0617  0.0499
    1DIPC   D2B13966  18.839  24.026   4.988  0.1111  0.4193 -0.1916
    1DIPC   D3B13967  19.147  23.616   4.860 -0.2270 -0.2530  0.3575
    1DIPC   C4B13968  18.915  23.325   4.665  0.1650  0.1735  0.0332
    1DIPC   NC313969  20.346  22.725   6.360  0.4273 -0.2495 -0.0918
    1DIPC   PO413970  20.579  22.694   6.010 -0.1951 -0.0749 -0.1146
    1DIPC   GL113971  20.788  22.874   5.673  0.0738 -0.0626 -0.1165
    1DIPC   GL213972  20.595  22.702   5.469  0.1433 -0.0089 -0.3253
    1DIPC   C1A13973  20.830  22.977   5.208 -0.2822 -0.0493 -0.0978
    1DIPC   D2A13974  20.940  22.727   4.752 -0.2858 -0.1583  0.1404
    1DIPC   D3A13975  20.903  22.474   5.103 -0.3298 -0.0750  0.0484
    1DIPC   C4A13976  21.321  22.207   4.930  0.4668  0.0449  0.1423
    1DIPC   C1B13977  20.435  22.627   5.033  0.0373 -0.2184  0.2643
    1DIPC   D2B13978  20.506  22.613   4.569  0.1177  0.0197  0.0359
    1DIPC   D3B13979  20.236  22.999   4.574 -0.1397 -0.0036 -0.0683
    1DIPC   C4B13980  19.747  23.063   4.346  0.0288  0.0048  0.2646
    1DIPC   NC313981   3.835   5.491   6.955  0.1207 -0.0102  0.1667
    1DIPC   PO413982   3.610   5.740   6.682  0.0019  0.0836 -0.1137
    1DIPC   GL113983   3.432   5.795   6.328 -0.2104 -0.0028  0.0825
    1DIPC   GL213984   3.431   6.098   6.220  0.1572  0.0428 -0.3320
    1DIPC   C1A13985   3.276   5.758   5.804  0.1820 -0.0563  0.0929
    1DIPC   D2A13986   3.186   5.803   5.297  0.1666  0.1315 -0.1210
    1DIPC   D3A13987   3.533   6.060   5.401  0.3016  0.0930  0.0655
    1DIPC   C4A13988   3.735   5.967   5.855  0.3459 -0.4728 -0.3555
    1DIPC   C1B13989   3.250   6.336   5.830 -0.1702  0.2858 -0.0162
    1DIPC   D2B13990   3.096   6.309   5.386 -0.1852 -0.0185 -0.3266
    1DIPC   D3B13991   3.436   6.622   5.146  0.1133  0.0933 -0.1723
    1DIPC   C4B13992   3.313   7.192   5.000 -0.0441  0.2178 -0.0337
    1DIPC   NC313993  19.452  10.754   6.274 -0.4312  0.0521  0.0830
    1DIPC   PO413994  19.077  11.046   6.453  0.2079 -0.1241 -0.2096
    1DIPC   GL113995  19.141  11.269   6.065  0.0860  0.0264 -0.1061
    1DIPC   GL213996  19.429  11.204   6.002  0.1451 -0.0660 -0.1559
    1DIPC   C1A13997  18.918  11.620   5.766  0.0150  0.0741  0.1730
    1DIPC   D2A13998  19.099  11.899   5.490  0.0971 -0.0932  0.0524
    1DIPC   D3A13999  19.086  11.810   4.975 -0.0316 -0.1610  0.0599
    1DIPC   C4A14000  18.955  12.126   4.794 -0.2272  0.0985  0.1582
    1DIPC   C1B14001  19.411  11.248   5.511  0.2031  0.0019  0.1181
    1DIPC   D2B14002  19.494  11.581   5.243  0.1413 -0.2795  0.0184
    1DIPC   D3B14003  19.571  12.005   5.352 -0.1056  0.1640  0.0916
    1DIPC   C4B14004  19.902  12.158   5.162  0.0823  0.0818  0.2137
    1DIPC   NC314005  20.116  10.666   5.999 -0.0204 -0.1934  0.0184
    1DIPC   PO414006  19.884  11.020   6.155  0.1095  0.0158  0.3355
    1DIPC   GL114007  19.677  10.869   5.683  0.1166  0.0599 -0.1620
    1DIPC   GL214008  19.633  10.523   5.654  0.3753  0.0355  0.0301
    1DIPC   C1A14009  19.434  10.785   5.281 -0.0835 -0.0499  0.0516
    1DIPC   D2A14010  18.968  10.717   5.218 -0.0422 -0.0487 -0.4028
    1DIPC   D3A14011  18.589  10.989   5.111 -0.1944 -0.0514 -0.0982
    1DIPC   C4A14012  18.544  10.902   4.604 -0.1245  0.0144  0.0596
    1DIPC   C1B14013  19.618  10.084   5.752  0.0513 -0.1964  0.2356
    1DIPC   D2B14014  19.561   9.656   5.603 -0.3544 -0.1006  0.0335
    1DIPC   D3B14015  19.093   9.745   5.527  0.0181 -0.1670 -0.1587
    1DIPC   C4B14016  18.780   9.572   5.335  0.3125 -0.0967 -0.1010
    1DIPC   NC314017   7.211   3.332   7.292  0.2852 -0.3889  0.0138
    1DIPC   PO414018   7.493   3.136   6.989 -0.0324 -0.0488 -0.3927
    1DIPC   GL114019   7.117   3.419   6.777  0.0602  0.0157  0.1925
    1DIPC   GL214020   6.800   3.431   6.802  0.0633  0.1353 -0.0377
    1DIPC   C1A14021   6.910   3.568   6.371  0.2373  0.3817 -0.0050
    1DIPC   D2A14022   6.666   3.386   6.189  0.0053 -0.2742  0.1144
    1DIPC   D3A14023   6.401   3.182   5.832  0.0759 -0.0586 -0.2886
    1DIPC   C4A14024   6.530   3.283   5.470 -0.0828  0.0036 -0.0630
    1DIPC   C1B14025   6.412   3.599   6.555  0.2030 -0.1688 -0.0179
    1DIPC   D2B14026   6.236   4.045   6.481 -0.3066  0.1383  0.0027
    1DIPC   D3B14027   6.098   3.722   6.198  0.1175 -0.2315  0.1532
    1DIPC   C4B14028   6.181   3.212   6.275  0.0470 -0.1481  0.0037
    1DIPC   NC314029  22.300  16.945   5.871  0.2314  0.1170 -0.0279
    1DIPC   PO414030  22.644  17.066   6.013 -0.1186  0.0763  0.1337
    1DIPC   GL114031  22.712  17.159   5.541  0.3442 -0.0294  0.1569
    1DIPC   GL214032  22.426  17.092   5.234 -0.5657 -0.1314  0.4717
    1DIPC   C1A14033  22.795  16.725   5.320  0.0147  0.0028 -0.1794
    1DIPC   D2A14034  22.844  16.258   5.307  0.5060 -0.2787 -0.1861
    1DIPC   D3A14035  23.105  16.090   5.031  0.0707 -0.2247 -0.2860
    1DIPC   C4A14036  22.960  15.749   4.951 -0.0054 -0.1214  0.1827
    1DIPC   C1B14037  22.047  17.057   4.851 -0.0490  0.0568 -0.2021
    1DIPC   D2B14038  21.631  17.052   4.695 -0.2029  0.1871  0.0624
    1DIPC   D3B14039  21.814  17.280   4.434  0.0046 -0.0240  0.0456
    1DIPC   C4B14040  22.139  17.359   4.340  0.3595 -0.2003  0.0746
    1DIPC   NC314041  25.340  25.404   6.712  0.0250  0.3034  0.1366
    1DIPC   PO414042  25.752  25.326   6.628  0.0826  0.0175  0.2064
    1DIPC   GL114043  25.550  25.515   6.177  0.1151 -0.0449  0.2521
    1DIPC   GL214044  25.157  25.463   6.198 -0.0202  0.0392 -0.1778
    1DIPC   C1A14045  25.678  25.679   5.666  0.0013  0.0151 -0.3058
    1DIPC   D2A14046  25.572  26.082   5.449 -0.2702 -0.2657  0.2822
    1DIPC   D3A14047  25.617  26.462   5.138  0.3992  0.1309  0.3168
    1DIPC   C4A14048  25.426  26.824   5.265 -0.0119  0.0636  0.1303
    1DIPC   C1B14049  25.316  25.359   5.730  0.1492  0.1878 -0.2835
    1DIPC   D2B14050  25.350  25.337   5.280  0.0350  0.0299 -0.0160
    1DIPC   D3B14051  25.425  25.702   5.175  0.0746  0.1391 -0.0317
    1DIPC   C4B14052  25.736  25.950   4.932 -0.2029 -0.1494  0.1228
    1DIPC   NC314053  24.602  24.555   6.457 -0.0422  0.1650 -0.0884
    1DIPC   PO414054  24.401  24.412   6.078  0.1094  0.0137 -0.2105
    1DIPC   GL114055  24.104  24.418   5.773 -0.0837  0.1977 -0.0821
    1DIPC   GL214056  24.223  24.626   5.555  0.1300 -0.1390 -0.0699
    1DIPC   C1A14057  24.056  24.099   5.420 -0.1369 -0.1359  0.2340
    1DIPC   D2A14058  23.775  24.363   5.111  0.1567 -0.0581  0.1635
    1DIPC   D3A14059  23.474  24.056   5.160 -0.0829 -0.0069  0.1961
    1DIPC   C4A14060  23.458  23.705   4.918 -0.0729  0.0154 -0.3107
    1DIPC   C1B14061  24.431  24.651   5.109  0.0253  0.1292 -0.2400
    1DIPC   D2B14062  24.360  25.017   4.895 -0.0288 -0.0348  0.3222
    1DIPC   D3B14063  24.836  24.826   4.833  0.0968 -0.1185  0.0119
    1DIPC   C4B14064  25.120  25.243   4.803 -0.2442 -0.0469  0.1179
    1DIPC   NC314065  28.167  25.387   6.769 -0.1128  0.2832  0.0162
    1DIPC   PO414066  27.944  25.433   6.407 -0.2007  0.2376 -0.0206
    1DIPC   GL114067  27.786  25.430   6.017 -0.0077 -0.1071 -0.0221
    1DIPC   GL214068  27.460  25.452   5.910  0.0544 -0.0485 -0.2442
    1DIPC   C1A14069  27.747  25.734   5.662  0.1340 -0.0115  0.0737
    1DIPC   D2A14070  28.028  25.742   5.317 -0.1089 -0.0487  0.0658
    1DIPC   D3A14071  27.942  25.791   4.842 -0.1440  0.0517  0.2075
    1DIPC   C4A14072  27.636  26.144   4.862 -0.1527  0.0209 -0.0689
    1DIPC   C1B14073  27.457  25.404   5.507 -0.2286  0.2264 -0.0164
    1DIPC   D2B14074  27.535  25.730   5.191  0.0463  0.0800  0.1029
    1DIPC   D3B14075  27.321  25.944   5.503  0.0508  0.1555 -0.2159
    1DIPC   C4B14076  27.202  26.334   5.461  0.1246  0.1345  0.1762
    1DIPC   NC314077  16.581   8.480   6.146 -0.1681  0.2493 -0.0571
    1DIPC   PO414078  16.094   8.806   6.194  0.0386  0.1084 -0.1147
    1DIPC   GL114079  16.009   9.024   5.818  0.1652 -0.1981 -0.0066
    1DIPC   GL214080  15.676   8.878   5.743  0.2415  0.0797 -0.1240
    1DIPC   C1A14081  15.948   9.174   5.365  0.0737 -0.2866  0.1617
    1DIPC   D2A14082  15.943   9.560   5.047 -0.0333 -0.0920  0.0474
    1DIPC   D3A14083  15.853   9.178   4.897 -0.0854 -0.0392 -0.2915
    1DIPC   C4A14084  15.643   9.003   4.580 -0.0792  0.2073 -0.1123
    1DIPC   C1B14085  15.413   9.103   5.459  0.0265 -0.0039  0.1706
    1DIPC   D2B14086  15.518   9.555   5.311 -0.2567  0.0798  0.1848
    1DIPC   D3B14087  15.531   9.896   5.006  0.1177  0.0811 -0.0068
    1DIPC   C4B14088  15.646   9.911   4.535  0.2071  0.1892 -0.0670
    1DIPC   NC314089   0.112   3.796   7.134 -0.2448 -0.2098  0.1478
    1DIPC   PO414090  30.250   4.162   7.131 -0.2619  0.0156 -0.1356
    1DIPC   GL114091  30.278   3.934   6.661 -0.1270  0.2234  0.2418
    1DIPC   GL214092  29.974   3.837   6.632 -0.1106  0.2549  0.0543
    1DIPC   C1A14093   0.140   3.771   6.262  0.1034  0.1267 -0.2386
    1DIPC   D2A14094   0.398   3.810   5.977 -0.1774 -0.0488  0.0032
    1DIPC   D3A14095   0.362   4.077   5.483  0.3579  0.0994  0.1493
    1DIPC   C4A14096   0.438   3.721   5.276 -0.0965 -0.0082  0.0974
    1DIPC   C1B14097  29.805   4.272   6.585 -0.1801  0.0868 -0.0700
    1DIPC   D2B14098  29.877   4.651   6.580 -0.3044 -0.1787  0.4083
    1DIPC   D3B14099  29.894   4.782   6.151  0.0085 -0.0365  0.0624
    1DIPC   C4B14100  29.939   4.605   5.784 -0.3298 -0.0020  0.1441
    1DIPC   NC314101  20.134   8.450   6.655  0.0386 -0.0786 -0.1323
    1DIPC   PO414102  20.029   8.261   6.216 -0.0965 -0.0757  0.1497
    1DIPC   GL114103  20.222   8.262   5.860  0.0077  0.1597 -0.3249
    1DIPC   GL214104  20.472   8.417   5.840  0.0889 -0.2420  0.2389
    1DIPC   C1A14105  20.318   8.010   5.542 -0.0267  0.0198  0.0487
    1DIPC   D2A14106  20.576   7.830   5.398  0.1033  0.0946  0.1375
    1DIPC   D3A14107  20.658   7.457   5.287 -0.2426  0.1017 -0.1205
    1DIPC   C4A14108  20.547   7.424   4.893  0.1994  0.1787 -0.0057
    1DIPC   C1B14109  20.643   8.364   5.444  0.1213  0.2371  0.0280
    1DIPC   D2B14110  20.510   8.172   5.006 -0.1621  0.0354 -0.1997
    1DIPC   D3B14111  20.645   8.180   4.637  0.0765  0.2143  0.1676
    1DIPC   C4B14112  20.510   8.563   4.379  0.1546  0.0198  0.1941
    1DIPC   NC314113  23.505   0.204   7.217 -0.3411 -0.2614  0.2799
    1DIPC   PO414114  23.858   0.005   6.923  0.3317  0.1276 -0.2174
    1DIPC   GL114115  23.733  30.285   6.667 -0.0122 -0.1439 -0.0106
    1DIPC   GL214116  23.618  30.093   6.480 -0.1224 -0.1160  0.5105
    1DIPC   C1A14117  23.636   0.212   6.356 -0.0450  0.0607 -0.3150
    1DIPC   D2A14118  23.573   0.575   6.105  0.4461  0.0156 -0.0726
    1DIPC   D3A14119  24.023   0.434   6.185  0.0776 -0.1886  0.0661
    1DIPC   C4A14120  24.225   0.760   6.395 -0.1083  0.1579 -0.0671
    1DIPC   C1B14121  23.892  30.171   6.076  0.1019  0.3778  0.1049
    1DIPC   D2B14122  24.316  30.353   5.960  0.3858  0.1530 -0.2139
    1DIPC   D3B14123  24.175   0.350   5.692  0.2420  0.0780  0.2015
    1DIPC   C4B14124  24.045   0.520   5.286  0.1161  0.1503 -0.0931
    1DIPC   NC314125  16.685   3.568   5.952 -0.1627  0.0985  0.1391
    1DIPC   PO414126  16.498   4.053   5.873 -0.0486  0.0791  0.1891
    1DIPC   GL114127  16.588   3.913   5.565  0.0734 -0.0528  0.0142
    1DIPC   GL214128  16.503   3.592   5.523 -0.1915 -0.3356 -0.3906
    1DIPC   C1A14129  17.007   3.723   5.390  0.0953  0.0798  0.1740
    1DIPC   D2A14130  17.417   4.033   5.375 -0.0757  0.1246  0.0605
    1DIPC   D3A14131  17.346   3.921   4.983 -0.0057  0.1756 -0.3159
    1DIPC   C4A14132  17.015   4.231   4.707  0.3232  0.0205  0.2446
    1DIPC   C1B14133  16.454   3.773   5.080  0.0039 -0.2673  0.4446
    1DIPC   D2B14134  16.151   3.661   4.713 -0.2322 -0.2939  0.0947
    1DIPC   D3B14135  16.579   3.432   4.592 -0.0584  0.0169  0.0704
    1DIPC   C4B14136  16.678   3.483   4.076  0.3446  0.0979 -0.2248
    1DIPC   NC314137  24.336   5.336   6.824  0.3645  0.1065 -0.1409
    1DIPC   PO414138  24.120   5.009   6.833  0.0468  0.3499  0.1252
    1DIPC   GL114139  24.111   4.536   6.712 -0.0302  0.5440  0.1178
    1DIPC   GL214140  24.341   4.630   6.429  0.2142 -0.4546  0.1928
    1DIPC   C1A14141  24.244   4.124   6.515 -0.1336  0.0505 -0.4081
    1DIPC   D2A14142  24.308   3.964   6.113 -0.0899  0.0697 -0.0184
    1DIPC   D3A14143  24.048   4.003   5.724  0.5776 -0.0450 -0.0254
    1DIPC   C4A14144  24.167   4.244   5.327 -0.1826  0.4374  0.0874
    1DIPC   C1B14145  23.813   4.823   6.318  0.0140  0.1700  0.3227
    1DIPC   D2B14146  23.487   4.586   6.049  0.0026 -0.1848  0.1739
    1DIPC   D3B14147  23.766   4.389   5.712  0.1653 -0.0251 -0.0342
    1DIPC   C4B14148  23.656   4.332   5.315  0.0525  0.1514 -0.2492
    1DIPC   NC314149  29.223   2.093   7.163 -0.0504  0.2920 -0.2989
    1DIPC   PO414150  29.230   2.620   7.212  0.2432 -0.1703 -0.0142
    1DIPC   GL114151  29.109   2.684   6.808 -0.1904  0.0079 -0.1109
    1DIPC   GL214152  28.840   2.872   6.802 -0.2876  0.1842 -0.0573
    1DIPC   C1A14153  29.043   2.403   6.462  0.5123  0.1216  0.2165
    1DIPC   D2A14154  28.761   2.367   6.026 -0.1062 -0.0882  0.1659
    1DIPC   D3A14155  29.109   2.440   5.769  0.3751  0.1859  0.1259
    1DIPC   C4A14156  29.355   2.598   5.944  0.0606 -0.0570 -0.0280
    1DIPC   C1B14157  29.063   2.894   6.355  0.0278 -0.1258 -0.6656
    1DIPC   D2B14158  28.979   2.972   5.922 -0.0553 -0.1218 -0.0154
    1DIPC   D3B14159  29.198   3.316   6.029 -0.0997  0.1665 -0.3182
    1DIPC   C4B14160  29.523   3.426   6.349  0.1419 -0.1803  0.0892
    1DIPC   NC314161   1.899   1.536   7.868 -0.0636 -0.1304 -0.1039
    1DIPC   PO414162   1.808   1.357   7.380 -0.0455 -0.2764 -0.0160
    1DIPC   GL114163   1.830   1.400   6.938 -0.1603 -0.3672 -0.0444
    1DIPC   GL214164   2.026   1.267   6.793 -0.3274 -0.0481  0.1357
    1DIPC   C1A14165   1.940   1.720   6.570 -0.0244 -0.0256 -0.0864
    1DIPC   D2A14166   1.994   1.588   6.092 -0.3598  0.0727  0.1192
    1DIPC   D3A14167   1.610   1.782   6.006 -0.1002 -0.0206  0.3888
    1DIPC   C4A14168   1.676   2.068   5.590 -0.1623 -0.3321  0.2765
    1DIPC   C1B14169   1.722   1.140   6.458  0.0541 -0.0054 -0.0626
    1DIPC   D2B14170   1.584   1.263   5.914 -0.0916 -0.4182  0.0183
    1DIPC   D3B14171   2.020   0.981   5.949  0.0845 -0.3954  0.0922
    1DIPC   C4B14172   2.220   0.701   5.599  0.1876 -0.2562 -0.0380
    1DIPC   NC314173  10.992   9.423   7.379 -0.0189  0.1445 -0.0023
    1DIPC   PO414174  11.467   9.425   7.399  0.2416  0.1996  0.1486
    1DIPC   GL114175  11.285   9.452   6.975  0.2037  0.0370  0.0928
    1DIPC   GL214176  11.571   9.561   6.875  0.2867 -0.1041  0.1308
    1DIPC   C1A14177  10.872   9.509   6.664  0.0433  0.0757  0.0323
    1DIPC   D2A14178  10.758   9.185   6.362 -0.1459 -0.4497  0.2083
    1DIPC   D3A14179  10.512   9.596   6.299 -0.3833  0.2019  0.2204
    1DIPC   C4A14180  10.697   9.918   6.385 -0.1316  0.2025 -0.1690
    1DIPC   C1B14181  11.328   9.526   6.451  0.0661  0.0227 -0.0381
    1DIPC   D2B14182  11.018   9.619   6.067  0.2014  0.1415  0.2376
    1DIPC   D3B14183  11.164   9.429   5.620 -0.0552 -0.0206  0.2923
    1DIPC   C4B14184  10.879   9.153   5.458 -0.1495  0.3466 -0.0397
    1DIPC   NC314185  22.715  21.785   6.065 -0.1155  0.1309 -0.1640
    1DIPC   PO414186  23.130  21.751   6.042 -0.1119  0.2847 -0.5764
    1DIPC   GL114187  23.395  21.792   5.744  0.0643  0.0429  0.0061
    1DIPC   GL214188  23.251  21.685   5.457 -0.0836  0.0694  0.0208
    1DIPC   C1A14189  23.708  22.197   5.661  0.2116  0.0669  0.2255
    1DIPC   D2A14190  23.827  22.560   5.387 -0.3539 -0.1155  0.0896
    1DIPC   D3A14191  23.853  22.884   5.715 -0.0445  0.0189  0.1105
    1DIPC   C4A14192  24.138  23.323   5.627 -0.1994 -0.5393 -0.5277
    1DIPC   C1B14193  23.505  21.886   5.167 -0.3043  0.0075  0.0068
    1DIPC   D2B14194  23.788  22.105   4.863 -0.0341  0.0813 -0.0507
    1DIPC   D3B14195  23.523  22.102   4.468 -0.4783 -0.0736 -0.0076
    1DIPC   C4B14196  23.727  22.204   4.112 -0.1163 -0.2816  0.1948
    1DIPC   NC314197  22.032  13.709   6.164 -0.0810  0.1420  0.3299
    1DIPC   PO414198  22.207  13.277   6.018 -0.1731 -0.0441 -0.0483
    1DIPC   GL114199  22.345  13.372   5.668  0.0898  0.0345 -0.0052
    1DIPC   GL214200  22.443  13.605   5.632 -0.1529 -0.2666  0.0378
    1DIPC   C1A14201  22.244  13.248   5.226  0.4217 -0.2009 -0.0070
    1DIPC   D2A14202  22.371  13.083   4.915  0.0201 -0.1940  0.2327
    1DIPC   D3A14203  22.247  13.067   4.461  0.0747  0.0183 -0.1973
    1DIPC   C4A14204  21.852  13.299   4.258 -0.0847  0.3603 -0.0945
    1DIPC   C1B14205  22.251  13.794   5.312 -0.0401  0.0050 -0.2156
    1DIPC   D2B14206  21.837  13.589   5.132 -0.0267  0.0786 -0.0226
    1DIPC   D3B14207  21.460  13.678   5.404 -0.0948  0.1677  0.1266
    1DIPC   C4B14208  21.293  14.019   5.291  0.2151  0.0044 -0.1963
    1DIPC   NC314209   7.776   1.360   7.425 -0.0370  0.1545  0.0043
    1DIPC   PO414210   7.678   1.789   7.227 -0.3194 -0.1205 -0.2754
    1DIPC   GL114211   7.693   1.511   6.939  0.3391  0.0011 -0.0942
    1DIPC   GL214212   7.637   1.480   6.626 -0.2750 -0.2476 -0.1922
    1DIPC   C1A14213   7.453   1.060   6.820 -0.2151 -0.3384  0.2893
    1DIPC   D2A14214   7.065   0.892   6.972 -0.1284  0.0859 -0.0171
    1DIPC   D3A14215   7.136   0.604   6.742 -0.2400 -0.0898 -0.3829
    1DIPC   C4A14216   7.283   0.428   6.369 -0.0514  0.0115  0.1927
    1DIPC   C1B14217   7.356   1.300   6.291  0.4168 -0.0148 -0.0074
    1DIPC   D2B14218   6.903   1.355   6.028  0.1816  0.1092 -0.0256
    1DIPC   D3B14219   6.977   1.068   5.686  0.0288  0.1967 -0.0192
    1DIPC   C4B14220   6.660   0.811   5.504  0.1881  0.1413  0.1038
    1DIPC   NC314221  16.755  25.757   6.634  0.0151 -0.1537  0.1578
    1DIPC   PO414222  16.435  25.830   6.340 -0.0620 -0.0072 -0.2060
    1DIPC   GL114223  16.206  26.060   5.993  0.1951  0.2614 -0.0726
    1DIPC   GL214224  15.944  25.864   5.753  0.0221  0.0690 -0.0493
    1DIPC   C1A14225  16.143  26.378   5.701 -0.0358 -0.0649 -0.1806
    1DIPC   D2A14226  15.736  26.294   5.476  0.0362 -0.2353  0.2690
    1DIPC   D3A14227  15.406  26.346   5.261 -0.3991  0.0853  0.2372
    1DIPC   C4A14228  15.323  26.391   4.840 -0.4068 -0.0664  0.2343
    1DIPC   C1B14229  16.211  26.030   5.386  0.1061  0.1113  0.1078
    1DIPC   D2B14230  16.203  26.449   5.231 -0.1895 -0.1512  0.1935
    1DIPC   D3B14231  16.452  26.749   5.000  0.2833 -0.0316  0.2813
    1DIPC   C4B14232  16.136  27.077   4.897  0.0432 -0.0191 -0.0807
    1DIPC   NC314233  16.930  15.517   6.816  0.1474 -0.1609  0.0518
    1DIPC   PO414234  17.114  15.885   6.596  0.1354 -0.1185  0.3393
    1DIPC   GL114235  17.037  15.745   6.227 -0.1135 -0.0841 -0.0473
    1DIPC   GL214236  16.956  15.444   6.268 -0.3932 -0.0622 -0.1417
    1DIPC   C1A14237  17.153  15.774   5.762 -0.1617  0.1115 -0.0654
    1DIPC   D2A14238  17.268  15.672   5.363 -0.2524  0.3323 -0.2304
    1DIPC   D3A14239  17.180  16.112   5.294 -0.2083 -0.0693  0.1250
    1DIPC   C4A14240  16.864  16.117   4.998  0.0212 -0.2805  0.0591
    1DIPC   C1B14241  16.465  15.449   6.426 -0.3515 -0.2458 -0.1105
    1DIPC   D2B14242  15.937  15.473   6.607  0.0794  0.0741  0.0850
    1DIPC   D3B14243  15.702  15.104   6.637 -0.0626 -0.0483  0.0616
    1DIPC   C4B14244  15.412  14.986   6.301 -0.0155 -0.3094  0.0903
    1DIPC   NC314245  14.851  21.608   6.339  0.1299  0.5671  0.0393
    1DIPC   PO414246  15.283  21.774   6.242  0.2925 -0.2741 -0.0359
    1DIPC   GL114247  15.352  22.193   5.964 -0.2109  0.0123 -0.0571
    1DIPC   GL214248  15.135  22.490   5.930  0.1072  0.2168  0.2287
    1DIPC   C1A14249  15.572  22.196   5.559  0.0843  0.2455 -0.1853
    1DIPC   D2A14250  15.823  22.441   5.179 -0.1624 -0.1765 -0.2888
    1DIPC   D3A14251  15.600  22.692   4.892  0.0929  0.0769  0.0980
    1DIPC   C4A14252  15.616  22.808   4.352 -0.1578 -0.0087  0.0389
    1DIPC   C1B14253  15.411  22.619   5.543  0.0834 -0.2748  0.2353
    1DIPC   D2B14254  15.631  23.016   5.321  0.0945  0.0300  0.2548
    1DIPC   D3B14255  15.528  23.213   4.824 -0.2215 -0.1587  0.1619
    1DIPC   C4B14256  15.748  23.267   4.394 -0.2088  0.1988  0.2757
    1DIPC   NC314257  19.031   1.818   6.132  0.2910  0.3502 -0.4156
    1DIPC   PO414258  19.493   1.673   6.418  0.2485  0.0827 -0.0903
    1DIPC   GL114259  19.543   1.935   6.058 -0.1432 -0.3566 -0.0063
    1DIPC   GL214260  19.660   1.809   5.762  0.2493  0.0945 -0.0395
    1DIPC   C1A14261  19.319   2.113   5.562 -0.0821 -0.2066 -0.1034
    1DIPC   D2A14262  19.393   2.409   5.165 -0.2425  0.2250  0.2818
    1DIPC   D3A14263  19.808   2.529   5.001  0.1715 -0.0123  0.0735
    1DIPC   C4A14264  19.876   2.872   4.779  0.2055 -0.0250 -0.1289
    1DIPC   C1B14265  19.447   1.491   5.488  0.0220 -0.0669  0.1505
    1DIPC   D2B14266  19.289   1.505   5.058 -0.1733  0.0341  0.1610
    1DIPC   D3B14267  19.347   1.103   4.863 -0.2526  0.0348  0.0388
    1DIPC   C4B14268  19.075   0.823   4.663  0.4296 -0.0502 -0.0782
    1DIPC   NC314269   4.976  12.711   6.413  0.2703 -0.0958 -0.1208
    1DIPC   PO414270   4.781  13.123   6.571 -0.0697  0.0335  0.3024
    1DIPC   GL114271   4.701  13.061   6.148  0.3741 -0.0051  0.1502
    1DIPC   GL214272   4.653  13.365   6.046 -0.0471  0.1576  0.0893
    1DIPC   C1A14273   4.847  12.815   5.767 -0.2450 -0.2665  0.0031
    1DIPC   D2A14274   4.876  12.707   5.337 -0.0867 -0.0037 -0.0272
    1DIPC   D3A14275   4.729  12.931   4.932  0.0264 -0.5115  0.0077
    1DIPC   C4A14276   4.535  12.863   4.575  0.3544 -0.0880  0.0815
    1DIPC   C1B14277   4.784  13.371   5.598  0.0093 -0.0581 -0.0478
    1DIPC   D2B14278   5.001  13.197   5.394  0.1747  0.0213  0.1569
    1DIPC   D3B14279   4.847  13.428   5.054 -0.1475 -0.1943  0.0700
    1DIPC   C4B14280   4.657  13.791   4.868 -0.0893 -0.3011  0.2754
    1DIPC   NC314281   1.092   5.089   6.543  0.1130 -0.2058  0.1364
    1DIPC   PO414282   0.784   5.221   6.853  0.0258 -0.0519  0.0779
    1DIPC   GL114283   0.635   4.817   6.648  0.0113 -0.4619  0.0494
    1DIPC   GL214284   0.740   4.546   6.620  0.0467 -0.2319 -0.0842
    1DIPC   C1A14285   0.590   4.799   6.152 -0.4340 -0.0248 -0.2521
    1DIPC   D2A14286   0.343   5.038   5.804 -0.0798  0.1315 -0.4324
    1DIPC   D3A14287   0.283   5.077   5.390  0.2560  0.0752 -0.1268
    1DIPC   C4A14288   0.296   5.227   4.927  0.0233 -0.0751  0.1909
    1DIPC   C1B14289   0.476   4.277   6.303 -0.0381 -0.0270 -0.0428
    1DIPC   D2B14290   0.619   4.281   5.905 -0.0722  0.1313 -0.1037
    1DIPC   D3B14291   0.785   3.911   5.602  0.0757 -0.0320 -0.1155
    1DIPC   C4B14292   1.261   3.882   5.678 -0.3134 -0.2092 -0.1726
    1DIPC   NC314293   5.599   4.821   7.231 -0.2379 -0.0365 -0.1703
    1DIPC   PO414294   5.998   4.731   7.089 -0.1083  0.3098 -0.2948
    1DIPC   GL114295   6.251   4.829   6.711 -0.1541 -0.0986 -0.3657
    1DIPC   GL214296   6.067   4.744   6.565  0.2543  0.3554  0.2636
    1DIPC   C1A14297   6.499   5.078   6.385 -0.0991  0.1307  0.1472
    1DIPC   D2A14298   6.784   4.843   6.232 -0.2219 -0.1273  0.0121
    1DIPC   D3A14299   6.595   4.510   6.376 -0.0789 -0.0608 -0.0630
    1DIPC   C4A14300   6.282   4.257   6.085  0.4128  0.1574 -0.0609
    1DIPC   C1B14301   5.940   4.890   6.319  0.1617  0.0949 -0.0261
    1DIPC   D2B14302   6.108   4.935   5.981  0.5264  0.2483  0.1135
    1DIPC   D3B14303   6.446   4.649   5.856 -0.1644 -0.1157  0.3026
    1DIPC   C4B14304   6.462   4.686   5.448  0.3390  0.2031  0.0132
    1DIPC   NC314305   2.479   4.637   7.142 -0.1705 -0.0224  0.0618
    1DIPC   PO414306   2.356   4.578   6.685 -0.0748  0.2296 -0.1270
    1DIPC   GL114307   2.425   4.738   6.266 -0.3019  0.3143 -0.1923
    1DIPC   GL214308   2.721   4.537   6.122 -0.1314 -0.0374  0.0002
    1DIPC   C1A14309   2.231   4.803   5.941  0.0614  0.1551 -0.1799
    1DIPC   D2A14310   2.004   4.626   5.683  0.2097 -0.1165 -0.2567
    1DIPC   D3A14311   2.020   4.711   5.219 -0.1228  0.1209 -0.0748
    1DIPC   C4A14312   1.754   4.731   4.870 -0.0377  0.1752  0.0436
    1DIPC   C1B14313   2.421   4.342   5.865  0.2292 -0.1820  0.2702
    1DIPC   D2B14314   2.582   4.073   5.612 -0.0450 -0.0295  0.0543
    1DIPC   D3B14315   2.889   4.319   5.629  0.1803 -0.1026  0.0488
    1DIPC   C4B14316   3.129   4.608   5.848  0.1481 -0.0162  0.0445
    1DIPC   NC314317   5.455   2.910   7.238 -0.0078  0.0389  0.1096
    1DIPC   PO414318   5.457   2.438   7.070  0.1227  0.0478 -0.0365
    1DIPC   GL114319   5.403   2.389   6.636  0.0091  0.1058  0.0345
    1DIPC   GL214320   5.557   2.119   6.557 -0.1153  0.2960  0.1285
    1DIPC   C1A14321   5.156   2.269   6.334  0.1515  0.5156  0.4100
    1DIPC   D2A14322   5.040   1.929   6.082  0.1068 -0.1745 -0.1940
    1DIPC   D3A14323   5.257   2.093   5.868  0.2195 -0.0097 -0.1028
    1DIPC   C4A14324   5.321   1.931   5.434  0.1605  0.0556 -0.1522
    1DIPC   C1B14325   5.939   2.179   6.257  0.0365  0.1615 -0.2618
    1DIPC   D2B14326   6.164   2.027   5.884 -0.1584  0.4010 -0.0351
    1DIPC   D3B14327   6.540   1.783   5.935 -0.2879 -0.1345  0.2242
    1DIPC   C4B14328   6.474   1.498   5.588 -0.0317  0.0133 -0.1164
    1DIPC   NC314329  14.412   0.958   6.414 -0.1858 -0.0693  0.2577
    1DIPC   PO414330  14.715   1.024   6.176 -0.2362 -0.0330 -0.0742
    1DIPC   GL114331  14.798   1.256   5.711 -0.0425 -0.0155 -0.1186
    1DIPC   GL214332  15.104   1.265   5.826  0.2405 -0.4326 -0.2364
    1DIPC   C1A14333  14.848   1.372   5.381  0.1803 -0.2085  0.3010
    1DIPC   D2A14334  15.025   1.574   5.032  0.0708  0.2643  0.0390
    1DIPC   D3A14335  14.659   1.413   4.743  0.0472 -0.4295 -0.1988
    1DIPC   C4A14336  14.170   1.236   4.774 -0.0382  0.0043  0.2485
    1DIPC   C1B14337  15.257   0.960   5.469  0.2472  0.0570  0.1380
    1DIPC   D2B14338  15.322   0.519   5.471  0.0743 -0.0774 -0.0423
    1DIPC   D3B14339  15.533   0.395   5.084 -0.0155  0.0102  0.1783
    1DIPC   C4B14340  15.692   0.069   5.328 -0.3084 -0.1268 -0.0885
    1DIPC   NC314341   5.985  14.156   6.573 -0.0160 -0.2989  0.3421
    1DIPC   PO414342   6.267  13.843   6.459  0.2127 -0.4443 -0.0599
    1DIPC   GL114343   5.850  13.736   6.251  0.1120 -0.1809  0.0118
    1DIPC   GL214344   5.627  13.497   6.218  0.0096  0.1621 -0.2838
    1DIPC   C1A14345   5.905  13.777   5.801 -0.0345 -0.1049 -0.2479
    1DIPC   D2A14346   5.788  14.063   5.541 -0.0241  0.0861  0.2267
    1DIPC   D3A14347   5.574  13.868   5.214 -0.1934  0.0143 -0.2191
    1DIPC   C4A14348   5.877  13.716   4.895  0.0323  0.1937  0.1760
    1DIPC   C1B14349   5.737  13.321   5.842  0.0729 -0.1718 -0.0817
    1DIPC   D2B14350   5.789  13.365   5.497  0.0098 -0.0625  0.1822
    1DIPC   D3B14351   5.876  13.277   5.131 -0.2025 -0.0239 -0.1097
    1DIPC   C4B14352   5.704  13.231   4.772 -0.1001  0.1805  0.1609
    1DIPC   NC314353  17.580   2.703   6.356 -0.1805  0.0391  0.2297
    1DIPC   PO414354  17.323   2.573   6.025  0.3760  0.0708 -0.4550
    1DIPC   GL114355  17.456   2.314   5.618  0.0538 -0.1981  0.0530
    1DIPC   GL214356  17.654   2.035   5.647 -0.0965  0.3360  0.0472
    1DIPC   C1A14357  17.221   2.231   5.181 -0.0318  0.2203  0.1654
    1DIPC   D2A14358  17.026   2.075   4.758  0.0760 -0.0226  0.2768
    1DIPC   D3A14359  16.764   1.681   4.739 -0.2745 -0.1707  0.0735
    1DIPC   C4A14360  16.562   1.553   5.105 -0.2417 -0.0037  0.1270
    1DIPC   C1B14361  17.694   1.809   5.215 -0.3329 -0.3341 -0.2084
    1DIPC   D2B14362  17.886   1.529   4.870 -0.0217  0.0610 -0.0586
    1DIPC   D3B14363  18.171   1.379   4.597  0.0234  0.3043  0.3344
    1DIPC   C4B14364  17.955   1.226   4.219 -0.1966  0.0462  0.0390
    1DIPC   NC314365  20.469  27.125   6.509  0.1244  0.0743 -0.0034
    1DIPC   PO414366  19.986  27.191   6.536  0.0307 -0.2091  0.1663
    1DIPC   GL114367  20.123  27.409   6.133 -0.0828 -0.1502  0.0102
    1DIPC   GL214368  20.121  27.694   6.235  0.1746 -0.0745 -0.2295
    1DIPC   C1A14369  20.052  27.626   5.714 -0.2035 -0.1479 -0.3518
    1DIPC   D2A14370  20.118  27.756   5.259 -0.3998  0.0223 -0.0696
    1DIPC   D3A14371  20.263  28.161   5.180 -0.2005  0.1164 -0.2542
    1DIPC   C4A14372  20.764  28.227   5.027  0.4935 -0.1598 -0.1958
    1DIPC   C1B14373  19.877  28.042   6.501  0.2405  0.0059 -0.2163
    1DIPC   D2B14374  19.654  28.387   6.328  0.0821  0.2723 -0.1730
    1DIPC   D3B14375  19.814  28.155   5.975 -0.0423 -0.1306 -0.1596
    1DIPC   C4B14376  19.858  28.052   5.564  0.1478 -0.2544 -0.1529
    1DIPC   NC314377  15.413   2.839   6.480 -0.1709  0.0152 -0.3190
    1DIPC   PO414378  15.474   3.293   6.375  0.2495 -0.1035  0.0854
    1DIPC   GL114379  15.202   3.511   6.174  0.1446 -0.0340 -0.2305
    1DIPC   GL214380  15.324   3.619   5.908  0.2156 -0.2153 -0.1493
    1DIPC   C1A14381  14.759   3.368   6.012 -0.2107 -0.1177  0.2116
    1DIPC   D2A14382  14.698   3.104   5.803 -0.1530  0.1395  0.2555
    1DIPC   D3A14383  14.601   3.324   5.422  0.0143  0.0017  0.0786
    1DIPC   C4A14384  14.823   3.330   5.050  0.1373  0.3382  0.2235
    1DIPC   C1B14385  15.071   3.464   5.572  0.0008 -0.1146 -0.1745
    1DIPC   D2B14386  14.793   3.773   5.320 -0.1186 -0.1310  0.1278
    1DIPC   D3B14387  15.097   3.996   5.030 -0.2686  0.0437 -0.1158
    1DIPC   C4B14388  15.188   3.905   4.576 -0.2771  0.2969 -0.0266
    1DIPC   NC314389  24.692  14.078   6.034 -0.1269  0.3575 -0.2450
    1DIPC   PO414390  24.219  14.103   5.818  0.2705  0.0054  0.0771
    1DIPC   GL114391  24.431  14.191   5.504 -0.0256 -0.0524  0.5209
    1DIPC   GL214392  24.732  14.323   5.515  0.0911  0.0933  0.3004
    1DIPC   C1A14393  24.472  14.143   5.071 -0.1897 -0.0601  0.1024
    1DIPC   D2A14394  24.417  14.402   4.673  0.0780  0.2291 -0.1631
    1DIPC   D3A14395  24.526  14.092   4.331 -0.1287  0.0231 -0.0206
    1DIPC   C4A14396  24.351  13.859   4.084  0.0246 -0.0507 -0.1774
    1DIPC   C1B14397  24.901  13.979   5.381  0.1463  0.0770 -0.1176
    1DIPC   D2B14398  24.788  13.720   5.118  0.0021  0.1046 -0.2070
    1DIPC   D3B14399  24.997  13.949   4.756  0.3750  0.0075 -0.2488
    1DIPC   C4B14400  25.307  13.718   4.581 -0.1137 -0.0372 -0.0154
    1DIPC   NC314401  11.190  14.069   7.646 -0.1003 -0.0437 -0.1200
    1DIPC   PO414402  10.932  14.239   7.296  0.0813 -0.1785 -0.2346
    1DIPC   GL114403  10.904  14.142   6.767  0.0308 -0.1624  0.2910
    1DIPC   GL214404  10.631  14.317   6.593  0.0852  0.1591 -0.0886
    1DIPC   C1A14405  10.921  13.813   6.506 -0.0927  0.2311 -0.0187
    1DIPC   D2A14406  11.142  13.467   6.431  0.1820  0.0371  0.1011
    1DIPC   D3A14407  11.206  13.381   5.970 -0.0439  0.2023 -0.4450
    1DIPC   C4A14408  10.834  13.406   5.730  0.1458 -0.2776 -0.0113
    1DIPC   C1B14409  10.857  14.270   6.213 -0.3663  0.0288 -0.3878
    1DIPC   D2B14410  11.247  14.307   6.215 -0.2738 -0.0936  0.1280
    1DIPC   D3B14411  11.197  14.537   6.508  0.0295 -0.0893 -0.1634
    1DIPC   C4B14412  10.901  14.825   6.513 -0.1451  0.1250  0.2279
    1DIPC   NC314413  25.450  12.214   6.468 -0.1708  0.0713 -0.0105
    1DIPC   PO414414  25.634  12.315   6.031  0.3172  0.1877 -0.1702
    1DIPC   GL114415  25.711  12.757   5.780 -0.0478  0.1120 -0.1736
    1DIPC   GL214416  25.356  12.610   5.741  0.0262 -0.0671 -0.0467
    1DIPC   C1A14417  25.931  13.079   5.651  0.1459 -0.3933 -0.1770
    1DIPC   D2A14418  26.231  13.247   5.722  0.2976  0.1060 -0.1070
    1DIPC   D3A14419  26.276  13.238   5.305  0.1201  0.2786 -0.0194
    1DIPC   C4A14420  26.580  13.412   5.028 -0.0496  0.3185 -0.0598
    1DIPC   C1B14421  25.305  12.338   5.358  0.1410  0.2807 -0.1051
    1DIPC   D2B14422  25.621  12.095   5.219 -0.2383 -0.1402 -0.1157
    1DIPC   D3B14423  25.890  11.947   4.909 -0.1362 -0.0493  0.0050
    1DIPC   C4B14424  26.220  12.253   4.663  0.0761  0.3203 -0.0952
    1DIPC   NC314425   5.010  10.371   6.528 -0.1684 -0.0711  0.1171
    1DIPC   PO414426   4.663  10.355   6.277 -0.0790 -0.0015 -0.1645
    1DIPC   GL114427   5.024  10.493   6.060 -0.2577  0.0014 -0.1060
    1DIPC   GL214428   5.116  10.145   5.900  0.0004  0.3978 -0.2283
    1DIPC   C1A14429   5.172  10.659   5.661  0.0615 -0.1882  0.3168
    1DIPC   D2A14430   5.194  10.742   5.229 -0.1767  0.2571  0.0033
    1DIPC   D3A14431   5.625  10.796   5.051 -0.1134 -0.0171  0.1432
    1DIPC   C4A14432   5.980  11.043   5.064 -0.3012  0.0395  0.0086
    1DIPC   C1B14433   4.867  10.262   5.509  0.1676  0.3674  0.0648
    1DIPC   D2B14434   4.782  10.387   5.031 -0.0587 -0.2410 -0.0260
    1DIPC   D3B14435   5.049  10.698   4.722 -0.0452 -0.3443 -0.0455
    1DIPC   C4B14436   5.401  10.859   4.612 -0.2062  0.0385  0.0883
    1DIPC   NC314437  25.929  29.340   7.389  0.0082  0.0048 -0.0696
    1DIPC   PO414438  25.581  29.269   7.172  0.0256  0.0151  0.1516
    1DIPC   GL114439  25.767  29.154   6.809  0.2080  0.0148  0.0220
    1DIPC   GL214440  25.801  28.828   6.695  0.0842  0.0925 -0.2166
    1DIPC   C1A14441  25.648  29.192   6.308 -0.0640 -0.0724  0.0996
    1DIPC   D2A14442  26.010  28.982   6.173 -0.1782 -0.2091 -0.0088
    1DIPC   D3A14443  26.159  28.582   6.066  0.2475  0.1928  0.0092
    1DIPC   C4A14444  26.304  28.279   5.776 -0.1289 -0.1859 -0.1561
    1DIPC   C1B14445  26.224  28.848   6.610  0.0155  0.1969 -0.2502
    1DIPC   D2B14446  26.513  28.573   6.539 -0.1481 -0.0485  0.0249
    1DIPC   D3B14447  26.642  28.464   6.110  0.1255 -0.0073 -0.1311
    1DIPC   C4B14448  26.529  28.761   5.727 -0.0987 -0.0013  0.3676
    1DIPC   NC314449  17.917  22.797   6.611 -0.2131  0.2168 -0.1018
    1DIPC   PO414450  17.915  22.745   6.132  0.0881 -0.0767  0.0042
    1DIPC   GL114451  18.041  22.778   5.684  0.0438 -0.2593 -0.1453
    1DIPC   GL214452  18.233  22.480   5.729  0.4959 -0.0884  0.2386
    1DIPC   C1A14453  18.212  22.717   5.232 -0.1233  0.0113 -0.0832
    1DIPC   D2A14454  18.575  22.572   5.069  0.1513 -0.0058 -0.0582
    1DIPC   D3A14455  18.736  22.700   4.743  0.4240 -0.0142 -0.2592
    1DIPC   C4A14456  19.063  22.667   4.820  0.0736 -0.0431 -0.4368
    1DIPC   C1B14457  17.841  22.311   5.495  0.1937  0.0505 -0.1173
    1DIPC   D2B14458  17.476  22.479   5.321  0.1150 -0.0996  0.1307
    1DIPC   D3B14459  17.295  22.195   4.862 -0.0250 -0.1792 -0.0035
    1DIPC   C4B14460  17.196  21.785   4.747 -0.1411 -0.1682 -0.1222
    1DIPC   NC314461   7.923   5.416   6.545  0.0539  0.1644 -0.0589
    1DIPC   PO414462   7.783   5.779   6.522  0.0946 -0.2478  0.0345
    1DIPC   GL114463   7.581   5.898   6.211  0.1345  0.4410  0.1169
    1DIPC   GL214464   7.257   5.958   6.343 -0.2458  0.0367 -0.1433
    1DIPC   C1A14465   7.478   5.996   5.854 -0.2862  0.0186 -0.0287
    1DIPC   D2A14466   7.470   6.217   5.464  0.1284  0.0628  0.2383
    1DIPC   D3A14467   7.796   6.379   5.701 -0.1853 -0.1250 -0.2325
    1DIPC   C4A14468   7.901   6.260   6.117  0.3409 -0.2911 -0.3621
    1DIPC   C1B14469   6.921   6.080   6.157 -0.1126  0.0813 -0.2850
    1DIPC   D2B14470   6.585   5.932   5.794  0.0459  0.0938  0.1746
    1DIPC   D3B14471   6.927   6.117   5.513  0.1678  0.1190 -0.0772
    1DIPC   C4B14472   6.995   6.014   5.137 -0.0682 -0.0640  0.1027
    1DIPC   NC314473  21.052  14.832   6.010  0.0145  0.1762 -0.1443
    1DIPC   PO414474  21.192  14.339   5.905 -0.2516  0.1097 -0.2217
    1DIPC   GL114475  21.089  14.720   5.501  0.0447  0.3210  0.0442
    1DIPC   GL214476  20.684  14.741   5.602 -0.1522  0.0478 -0.0197
    1DIPC   C1A14477  20.739  14.774   5.083  0.0889  0.2022  0.0735
    1DIPC   D2A14478  20.361  15.012   4.941  0.0890 -0.0852 -0.1144
    1DIPC   D3A14479  20.185  14.892   4.593 -0.3949  0.1687 -0.2592
    1DIPC   C4A14480  19.718  14.800   4.752  0.0059  0.0076  0.0801
    1DIPC   C1B14481  20.294  14.906   5.425  0.3029 -0.1614  0.2477
    1DIPC   D2B14482  20.022  15.111   5.231  0.0047 -0.0160 -0.3047
    1DIPC   D3B14483  20.021  15.462   5.545 -0.2969 -0.1452 -0.0277
    1DIPC   C4B14484  19.889  15.896   5.523  0.5413 -0.3411 -0.3533
    1DIPC   NC314485  15.862   5.757   6.129 -0.1195  0.2648  0.1365
    1DIPC   PO414486  16.058   5.508   5.741 -0.0699  0.1516  0.0448
    1DIPC   GL114487  15.961   5.432   5.353 -0.0243  0.1069 -0.3930
    1DIPC   GL214488  15.900   5.110   5.292  0.1470 -0.0703  0.1521
    1DIPC   C1A14489  15.872   5.618   5.018 -0.0654  0.1785  0.0068
    1DIPC   D2A14490  16.007   5.843   4.625  0.0190 -0.3014 -0.1717
    1DIPC   D3A14491  16.007   5.445   4.457  0.2276 -0.1274  0.0221
    1DIPC   C4A14492  16.310   5.168   4.171  0.1410  0.3359 -0.2909
    1DIPC   C1B14493  16.202   4.760   5.117  0.1297 -0.1542 -0.4666
    1DIPC   D2B14494  16.487   4.483   4.851 -0.1753 -0.3359 -0.0834
    1DIPC   D3B14495  16.246   4.541   4.451 -0.0180  0.1785  0.0693
    1DIPC   C4B14496  15.894   4.207   4.447 -0.2016 -0.0522 -0.3990
    1DIPC   NC314497  22.900  23.474   6.245  0.2761 -0.0740  0.3555
    1DIPC   PO414498  22.930  22.989   6.216 -0.2926  0.0107  0.0693
    1DIPC   GL114499  22.960  22.854   5.727  0.4120 -0.0756  0.1975
    1DIPC   GL214500  23.342  22.726   5.628 -0.2415  0.0568  0.0551
    1DIPC   C1A14501  22.670  22.994   5.327  0.0675  0.2937 -0.2518
    1DIPC   D2A14502  22.579  23.118   4.878 -0.0325  0.1052 -0.1443
    1DIPC   D3A14503  22.278  23.345   4.720 -0.2293 -0.5520 -0.2304
    1DIPC   C4A14504  22.354  23.572   4.368 -0.1603  0.1193  0.0827
    1DIPC   C1B14505  23.331  22.282   5.359  0.0708 -0.2078 -0.1845
    1DIPC   D2B14506  23.273  22.264   4.938  0.1405  0.1540 -0.3257
    1DIPC   D3B14507  23.195  21.832   4.781 -0.0603 -0.0070 -0.1134
    1DIPC   C4B14508  23.042  21.823   4.378 -0.0770  0.0855 -0.0165
    1DIPC   NC314509  24.149   9.471   5.730  0.1723  0.1847 -0.0737
    1DIPC   PO414510  24.312   9.051   5.917  0.3376 -0.0440  0.0998
    1DIPC   GL114511  24.456   9.142   5.480  0.2404  0.2211 -0.0218
    1DIPC   GL214512  24.788   8.996   5.476  0.1365  0.3193 -0.3282
    1DIPC   C1A14513  24.395   9.111   5.028 -0.1833  0.1082 -0.2093
    1DIPC   D2A14514  24.229   9.236   4.596  0.0056  0.0565 -0.0770
    1DIPC   D3A14515  24.526   9.026   4.345 -0.1816  0.0967 -0.0235
    1DIPC   C4A14516  24.561   8.537   4.252  0.1383  0.1214 -0.0746
    1DIPC   C1B14517  24.860   9.392   5.338  0.3469 -0.1916 -0.1954
    1DIPC   D2B14518  24.978   9.712   5.073  0.3171 -0.0952 -0.2212
    1DIPC   D3B14519  24.895   9.923   4.629  0.0029 -0.0317  0.2204
    1DIPC   C4B14520  25.243   9.921   4.407 -0.0796  0.1207  0.2802
    1DIPC   NC314521  25.656  15.353   6.815 -0.2543 -0.2575 -0.0709
    1DIPC   PO414522  25.857  15.268   6.478  0.4831  0.1204 -0.1386
    1DIPC   GL114523  26.008  15.279   6.107  0.2127  0.0532  0.2562
    1DIPC   GL214524  25.940  15.580   5.855  0.0204  0.1646  0.0301
    1DIPC   C1A14525  26.402  15.421   5.828 -0.1654 -0.1464  0.1530
    1DIPC   D2A14526  26.725  15.264   5.742 -0.0705  0.3450  0.1384
    1DIPC   D3A14527  26.763  15.682   5.604 -0.1443  0.2971 -0.2797
    1DIPC   C4A14528  26.755  15.624   5.224  0.0480  0.3555 -0.0187
    1DIPC   C1B14529  25.763  15.665   5.434 -0.0756 -0.0703 -0.1357
    1DIPC   D2B14530  25.579  15.714   5.112  0.1020  0.0002 -0.3175
    1DIPC   D3B14531  25.441  15.862   4.781  0.3666  0.0025 -0.1272
    1DIPC   C4B14532  25.584  16.272   4.750  0.0952  0.2772  0.1378
    1DIPC   NC314533  13.795  18.575   6.410 -0.2133  0.1159  0.0576
    1DIPC   PO414534  13.641  18.423   6.004 -0.0069 -0.1668  0.3090
    1DIPC   GL114535  13.467  18.271   5.610 -0.4885  0.2265  0.3491
    1DIPC   GL214536  13.674  18.393   5.413  0.3197 -0.3124  0.2841
    1DIPC   C1A14537  13.431  17.967   5.288  0.1161  0.0170  0.0644
    1DIPC   D2A14538  13.094  17.996   4.910  0.0008  0.0868 -0.5179
    1DIPC   D3A14539  12.706  17.742   4.860 -0.0748 -0.1177  0.1116
    1DIPC   C4A14540  12.568  17.306   4.874 -0.0743  0.1349  0.0288
    1DIPC   C1B14541  13.769  18.226   5.005  0.0869  0.0145  0.0508
    1DIPC   D2B14542  13.978  18.130   4.639  0.1853  0.0654  0.2050
    1DIPC   D3B14543  14.298  18.227   4.809 -0.0497 -0.1864 -0.0717
    1DIPC   C4B14544  14.263  18.192   5.275 -0.0899 -0.2609 -0.1071
    1DIPC   NC314545  12.842  16.464   6.807 -0.1088 -0.2757  0.2753
    1DIPC   PO414546  12.659  16.470   6.414  0.1205  0.1428  0.3033
    1DIPC   GL114547  12.996  16.334   6.107 -0.0061 -0.0184 -0.2822
    1DIPC   GL214548  13.309  16.319   6.193 -0.1843  0.1226  0.0760
    1DIPC   C1A14549  13.082  16.180   5.651  0.3264  0.1082 -0.0129
    1DIPC   D2A14550  13.095  15.984   5.231 -0.2012  0.1668 -0.1109
    1DIPC   D3A14551  13.538  15.766   5.052 -0.1535  0.0377  0.0321
    1DIPC   C4A14552  13.627  15.363   5.155 -0.2722  0.0884 -0.1354
    1DIPC   C1B14553  13.397  16.552   5.755  0.0131 -0.0283  0.1420
    1DIPC   D2B14554  13.514  16.427   5.419 -0.0849  0.5152 -0.1042
    1DIPC   D3B14555  13.590  16.814   5.208  0.1277 -0.1202 -0.0217
    1DIPC   C4B14556  13.228  16.971   4.827 -0.0842 -0.1176 -0.1070
    1DIPC   NC314557  11.664  18.679   5.675  0.0144 -0.1022  0.0401
    1DIPC   PO414558  12.124  18.560   5.683  0.2940 -0.0393  0.2601
    1DIPC   GL114559  12.264  18.110   5.564 -0.1627  0.1302 -0.2397
    1DIPC   GL214560  12.290  18.162   5.187  0.1020 -0.1183  0.2856
    1DIPC   C1A14561  12.238  17.715   5.426 -0.2887 -0.2542 -0.1794
    1DIPC   D2A14562  12.578  17.519   5.326  0.1046  0.3511 -0.0849
    1DIPC   D3A14563  12.823  17.928   5.505 -0.2118  0.1941  0.2023
    1DIPC   C4A14564  12.851  18.255   5.230  0.0025 -0.0035 -0.1848
    1DIPC   C1B14565  12.229  17.803   4.914  0.1000 -0.1465 -0.3715
    1DIPC   D2B14566  12.291  17.615   4.520  0.1025 -0.2436 -0.1741
    1DIPC   D3B14567  12.029  17.322   4.820  0.0312  0.1771 -0.0567
    1DIPC   C4B14568  12.232  17.182   5.207  0.0560 -0.0180 -0.0598
    1DIPC   NC314569  13.513  29.011   6.910 -0.1239  0.1429 -0.2322
    1DIPC   PO414570  13.760  28.698   6.682  0.6705  0.0718 -0.2015
    1DIPC   GL114571  13.900  28.679   6.212  0.2850  0.0910  0.4516
    1DIPC   GL214572  13.646  28.568   6.011  0.0501  0.0082  0.2019
    1DIPC   C1A14573  14.087  28.435   5.885 -0.0645 -0.2339 -0.2063
    1DIPC   D2A14574  14.366  28.389   5.637  0.0348 -0.0003 -0.0688
    1DIPC   D3A14575  13.970  28.631   5.443  0.3794 -0.1695  0.1587
    1DIPC   C4A14576  13.897  28.998   5.617  0.0337  0.3761  0.2868
    1DIPC   C1B14577  13.412  28.874   5.805  0.1263  0.0005 -0.0309
    1DIPC   D2B14578  13.424  29.213   5.563 -0.0554  0.3033  0.1286
    1DIPC   D3B14579  13.774  29.488   5.707 -0.0772  0.0634 -0.0150
    1DIPC   C4B14580  13.939  29.390   6.028 -0.2016  0.1484 -0.0597
    1DIPC   NC314581  21.448   1.231   6.489 -0.0150 -0.2955  0.1490
    1DIPC   PO414582  21.549   1.514   6.843  0.1405 -0.2507 -0.1098
    1DIPC   GL114583  21.924   1.350   6.534  0.0461 -0.1280 -0.2875
    1DIPC   GL214584  22.314   1.202   6.380 -0.0168  0.0647  0.0465
    1DIPC   C1A14585  22.173   1.603   6.158 -0.1560  0.0030 -0.0854
    1DIPC   D2A14586  22.383   1.822   5.963  0.3069 -0.1968 -0.1889
    1DIPC   D3A14587  22.557   1.943   5.601  0.0559 -0.2382  0.1221
    1DIPC   C4A14588  22.903   2.211   5.604  0.3435 -0.0121  0.0228
    1DIPC   C1B14589  22.358   1.170   5.998  0.1418 -0.2237  0.0265
    1DIPC   D2B14590  22.414   1.126   5.699  0.0725 -0.2564  0.1571
    1DIPC   D3B14591  22.562   1.317   5.341 -0.0466 -0.0432  0.2967
    1DIPC   C4B14592  22.881   1.310   5.111 -0.0277 -0.1624 -0.0397
    1CHOL   ROH14593  27.256  13.036   5.985 -0.1955 -0.1938 -0.0657
    1CHOL    R114594  27.137  13.078   5.731 -0.0586 -0.2108 -0.1335
    1CHOL    R214595  27.085  13.331   5.631 -0.2123 -0.2216 -0.0770
    1CHOL    R314596  27.230  13.241   5.420  0.0136 -0.0184 -0.0140
    1CHOL    R414597  27.021  13.406   5.300 -0.1625 -0.2909 -0.1027
    1CHOL    R514598  27.068  13.200   5.249  0.1424 -0.2315 -0.0920
    1CHOL    C114599  27.120  13.365   4.909  0.0786 -0.1403 -0.0586
    1CHOL    C214600  27.131  13.379   4.511 -0.1729 -0.0173 -0.3663
    1CHOL   ROH14601   8.646  13.891   3.132  0.1472 -0.2781 -0.0416
    1CHOL    R114602   8.619  13.914   3.413  0.1576 -0.2648 -0.0405
    1CHOL    R214603   8.692  14.141   3.551  0.3022 -0.3083 -0.0329
    1CHOL    R314604   8.437  14.127   3.646  0.2897 -0.1492 -0.0433
    1CHOL    R414605   8.581  14.295   3.840  0.3943 -0.2814 -0.0129
    1CHOL    R514606   8.464  14.116   3.884  0.2714 -0.2059 -0.0468
    1CHOL    C114607   8.277  14.372   4.097  0.4362 -0.1162 -0.0110
    1CHOL    C214608   8.247  14.181   4.421 -0.0316  0.0261  0.0972
    1CHOL   ROH14609   7.509   6.366   6.514 -0.1647  0.0357 -0.0082
    1CHOL    R114610   7.341   6.407   6.290 -0.0886  0.1692 -0.0416
    1CHOL    R214611   7.306   6.655   6.174  0.1112  0.2012 -0.0322
    1CHOL    R314612   7.381   6.524   5.947  0.0658  0.1646 -0.0267
    1CHOL    R414613   7.158   6.696   5.864 -0.0322  0.0658  0.0171
    1CHOL    R514614   7.174   6.480   5.834  0.0315  0.0605  0.0700
    1CHOL    C114615   7.141   6.596   5.472 -0.1583 -0.0474  0.0510
    1CHOL    C214616   6.881   6.589   5.143 -0.3303 -0.0458 -0.0746
    1CHOL   ROH14617  20.668   3.872   3.981  0.0908 -0.0144  0.0881
    1CHOL    R114618  20.484   3.988   4.162  0.1086 -0.2146  0.2400
    1CHOL    R214619  20.543   4.030   4.428  0.4007  0.1191  0.1342
    1CHOL    R314620  20.471   4.286   4.371 -0.1647 -0.0564  0.0025
    1CHOL    R414621  20.437   4.263   4.661  0.3439  0.1494  0.0784
    1CHOL    R514622  20.287   4.331   4.518 -0.0155 -0.2577  0.2495
    1CHOL    C114623  20.308   4.638   4.743 -0.2198  0.0022 -0.0775
    1CHOL    C214624  20.062   5.006   4.712  0.0498 -0.4308  0.0245
    1CHOL   ROH14625  16.889   6.663   4.978  0.0211 -0.0012 -0.1397
    1CHOL    R114626  16.988   6.846   4.787  0.1178  0.0921 -0.0014
    1CHOL    R214627  16.875   6.875   4.536  0.3911  0.0420 -0.1309
    1CHOL    R314628  16.860   7.137   4.608  0.1221  0.0249 -0.1155
    1CHOL    R414629  16.788   7.133   4.324  0.2213 -0.0243 -0.1437
    1CHOL    R514630  16.942   7.256   4.418  0.0780  0.1153 -0.0807
    1CHOL    C114631  16.722   7.529   4.268 -0.1302 -0.0790 -0.1369
    1CHOL    C214632  16.711   7.884   4.183 -0.1211  0.0722  0.0737
    1CHOL   ROH14633   2.244  14.796   6.056 -0.0687  0.0977  0.1023
    1CHOL    R114634   2.251  14.679   5.798  0.1250  0.1389  0.0860
    1CHOL    R214635   2.022  14.634   5.649  0.1930 -0.1988  0.0689
    1CHOL    R314636   2.156  14.777   5.461 -0.0164  0.0409  0.0972
    1CHOL    R414637   1.977  14.604   5.308  0.3343 -0.2936  0.0584
    1CHOL    R514638   2.192  14.622   5.283  0.3116  0.0970  0.1116
    1CHOL    C114639   2.077  14.721   4.933  0.2198 -0.1239  0.0789
    1CHOL    C214640   2.122  14.657   4.558  0.1218 -0.2857 -0.0076
    1CHOL   ROH14641  24.117  12.753   2.572 -0.3927  0.0781  0.3280
    1CHOL    R114642  24.227  12.759   2.832 -0.1994 -0.1176  0.2542
    1CHOL    R214643  24.207  12.980   2.998  0.2805 -0.0840  0.2855
    1CHOL    R314644  24.102  12.799   3.172  0.0956  0.0767  0.3444
    1CHOL    R414645  24.173  13.029   3.338  0.1404  0.1379  0.2419
    1CHOL    R514646  24.235  12.822   3.369  0.0119  0.1210  0.3957
    1CHOL    C114647  24.056  12.887   3.700 -0.1150  0.4178  0.2717
    1CHOL    C214648  23.776  12.729   3.946  0.0507  0.1252  0.1243
    1CHOL   ROH14649  28.313   9.009   6.131 -0.0892 -0.1410 -0.0162
    1CHOL    R114650  28.491   8.987   5.911 -0.0755 -0.1517 -0.0050
    1CHOL    R214651  28.407   8.908   5.660 -0.0913 -0.0133 -0.0480
    1CHOL    R314652  28.525   9.141   5.583  0.0398 -0.0436  0.0579
    1CHOL    R414653  28.547   8.966   5.349  0.0381  0.0210  0.0164
    1CHOL    R514654  28.710   9.073   5.448  0.0521 -0.0829  0.0994
    1CHOL    C114655  28.739   9.218   5.096  0.2365  0.0123  0.1533
    1CHOL    C214656  29.078   9.465   4.907 -0.0549 -0.0628 -0.3987
    1CHOL   ROH14657   8.006  10.256   3.754  0.0322  0.3081  0.0131
    1CHOL    R114658   7.931  10.318   4.020  0.0657  0.2949  0.0259
    1CHOL    R214659   7.832  10.566   4.093 -0.0858  0.2394  0.0178
    1CHOL    R314660   7.626  10.419   4.192  0.0438  0.1091  0.0980
    1CHOL    R414661   7.658  10.641   4.381 -0.0413  0.1445  0.0695
    1CHOL    R514662   7.656  10.428   4.430  0.1161  0.1468  0.0871
    1CHOL    C114663   7.363  10.547   4.643  0.1062 -0.0329  0.1749
    1CHOL    C214664   7.475  10.701   4.978  0.1624  0.0175 -0.1448
    1CHOL   ROH14665   2.493  16.628   2.551 -0.3275 -0.1083 -0.0667
    1CHOL    R114666   2.639  16.792   2.729 -0.2174 -0.0978 -0.1652
    1CHOL    R214667   2.518  16.948   2.922 -0.1009 -0.0710 -0.1090
    1CHOL    R314668   2.686  16.815   3.089 -0.0132 -0.0661 -0.1936
    1CHOL    R414669   2.576  17.031   3.252 -0.1084 -0.2115 -0.0719
    1CHOL    R514670   2.787  16.987   3.222 -0.0904 -0.0834 -0.1162
    1CHOL    C114671   2.768  16.955   3.601 -0.0305 -0.2887 -0.1297
    1CHOL    C214672   2.797  16.987   4.017 -0.1587 -0.0182  0.1072
    1CHOL   ROH14673   4.898  24.539   3.143 -0.2238 -0.0216 -0.0530
    1CHOL    R114674   4.704  24.453   3.330 -0.1355 -0.1218 -0.0064
    1CHOL    R214675   4.672  24.187   3.399  0.0500 -0.1356  0.0393
    1CHOL    R314676   4.705  24.283   3.652  0.0335 -0.0750  0.0183
    1CHOL    R414677   4.581  24.018   3.687  0.0501 -0.0703  0.0777
    1CHOL    R514678   4.509  24.207   3.769  0.0360 -0.0579  0.0297
    1CHOL    C114679   4.558  24.009   4.091  0.0348  0.0244  0.0803
    1CHOL    C214680   4.696  24.000   4.450  0.0734  0.1948  0.1050
    1CHOL   ROH14681  27.789  18.029   2.259  0.0828 -0.0212 -0.1118
    1CHOL    R114682  27.817  18.129   2.522  0.0617 -0.1016 -0.0794
    1CHOL    R214683  27.605  18.144   2.699  0.0201 -0.0333 -0.1367
    1CHOL    R314684  27.770  18.000   2.859 -0.1012 -0.1612 -0.1232
    1CHOL    R414685  27.561  18.099   3.039  0.0843  0.2031 -0.0957
    1CHOL    R514686  27.776  18.123   3.065  0.1291 -0.0553 -0.1885
    1CHOL    C114687  27.691  17.939   3.388  0.0077  0.2208 -0.0591
    1CHOL    C214688  27.803  18.079   3.786 -0.0824 -0.1490 -0.0161
    1CHOL   ROH14689  29.982  21.027   2.437  0.0395 -0.0683  0.0037
    1CHOL    R114690  29.749  20.958   2.582  0.0857 -0.2236  0.0060
    1CHOL    R214691  29.736  20.736   2.745  0.3119 -0.1084  0.1901
    1CHOL    R314692  29.657  20.918   2.932  0.0567 -0.0395  0.0194
    1CHOL    R414693  29.658  20.660   3.073  0.1700  0.0665  0.1984
    1CHOL    R514694  29.492  20.801   3.061  0.0694 -0.0725  0.0000
    1CHOL    C114695  29.538  20.787   3.439 -0.1521  0.2330  0.0429
    1CHOL    C214696  29.552  20.606   3.774  0.0588  0.1287  0.2732
    1CHOL   ROH14697   8.332  11.978   6.123  0.1768  0.1236  0.0831
    1CHOL    R114698   8.313  12.240   6.018  0.1806  0.1366  0.1117
    1CHOL    R214699   8.533  12.382   5.929  0.1695  0.0927 -0.0058
    1CHOL    R314700   8.386  12.404   5.701  0.0427  0.1360  0.0807
    1CHOL    R414701   8.599  12.604   5.672  0.2496 -0.1273 -0.1784
    1CHOL    R514702   8.385  12.639   5.655  0.2812  0.1098 -0.0517
    1CHOL    C114703   8.499  12.755   5.310  0.1772 -0.2148 -0.1978
    1CHOL    C214704   8.705  12.696   4.978 -0.0771  0.1583  0.2731
    1CHOL   ROH14705  14.155  19.210   5.121  0.1004  0.1219 -0.0609
    1CHOL    R114706  14.336  19.185   4.904 -0.0109  0.0399 -0.1445
    1CHOL    R214707  14.257  19.101   4.653 -0.2094  0.2940 -0.1670
    1CHOL    R314708  14.375  19.333   4.574  0.0427  0.2037 -0.0672
    1CHOL    R414709  14.387  19.159   4.338 -0.2140  0.3078 -0.1672
    1CHOL    R514710  14.554  19.262   4.432 -0.0678  0.0665 -0.1453
    1CHOL    C114711  14.574  19.409   4.081  0.0198  0.2312 -0.0735
    1CHOL    C214712  14.481  19.643   3.802  0.1585 -0.3693  0.0552
    1CHOL   ROH14713   1.167  27.419   4.009  0.2724 -0.2853  0.1176
    1CHOL    R114714   1.253  27.493   4.269  0.1226 -0.1418  0.1288
    1CHOL    R214715   1.102  27.651   4.437 -0.0094 -0.1083 -0.0154
    1CHOL    R314716   1.136  27.445   4.610 -0.0335 -0.0221  0.0924
    1CHOL    R414717   1.211  27.684   4.763 -0.0702  0.0484 -0.0101
    1CHOL    R514718   1.332  27.505   4.735 -0.0610  0.0415  0.1001
    1CHOL    C114719   1.307  27.509   5.116 -0.1283  0.2206  0.0941
    1CHOL    C214720   1.129  27.345   5.376 -0.0823  0.0494 -0.1544
    1CHOL   ROH14721  29.823  23.212   6.264 -0.1381  0.1253  0.0592
    1CHOL    R114722  29.782  23.296   5.997 -0.0901  0.0313  0.0216
    1CHOL    R214723  29.802  23.561   5.919 -0.0468  0.0011 -0.0746
    1CHOL    R314724  29.978  23.461   5.739 -0.0331 -0.0887 -0.0119
    1CHOL    R414725  29.870  23.701   5.610 -0.0683 -0.1869 -0.1656
    1CHOL    R514726  29.875  23.500   5.526 -0.0392 -0.2398 -0.0372
    1CHOL    C114727  30.075  23.688   5.261 -0.0682 -0.3808 -0.1597
    1CHOL    C214728  30.087  23.584   4.983 -0.1705  0.1964  0.2389
    1CHOL   ROH14729   4.316   6.690   6.108 -0.1378  0.0291 -0.0480
    1CHOL    R114730   4.182   6.771   5.872 -0.1168  0.0866 -0.0396
    1CHOL    R214731   4.182   7.033   5.784 -0.0630  0.0966 -0.0042
    1CHOL    R314732   4.274   6.922   5.554 -0.0816  0.1102 -0.0189
    1CHOL    R414733   4.135   7.166   5.468 -0.0722  0.1283  0.0100
    1CHOL    R514734   4.101   6.963   5.394 -0.0891  0.1353 -0.0060
    1CHOL    C114735   4.195   7.139   5.068 -0.0951  0.1594  0.0045
    1CHOL    C214736   4.442   7.242   4.813 -0.0359  0.1444 -0.0777
    1CHOL   ROH14737  21.064  14.383   3.010  0.0109  0.0695 -0.0432
    1CHOL    R114738  20.950  14.281   3.247 -0.0567  0.1717 -0.0309
    1CHOL    R214739  21.003  14.026   3.340 -0.2162  0.1490  0.0037
    1CHOL    R314740  21.072  14.158   3.568 -0.1363  0.1380 -0.0137
    1CHOL    R414741  20.862  13.971   3.651 -0.1325  0.1629  0.0445
    1CHOL    R514742  20.865  14.186   3.685 -0.0982  0.1607  0.0467
    1CHOL    C114743  20.844  14.063   4.045 -0.0088  0.1607  0.0520
    1CHOL    C214744  20.876  13.874   4.420  0.2409 -0.2433  0.1483
    1CHOL   ROH14745   7.804  12.840   2.949 -0.0008  0.1182 -0.0097
    1CHOL    R114746   7.845  12.935   3.213 -0.0100  0.0396  0.0204
    1CHOL    R214747   8.018  13.142   3.271  0.0780 -0.0557  0.1032
    1CHOL    R314748   7.799  13.249   3.391  0.1035  0.0225  0.0804
    1CHOL    R414749   8.000  13.233   3.604  0.0654 -0.0730  0.1073
    1CHOL    R514750   7.797  13.152   3.609  0.0329  0.0072  0.0727
    1CHOL    C114751   7.784  13.386   3.910  0.0819 -0.0096  0.0883
    1CHOL    C214752   7.637  13.415   4.239 -0.1238  0.0614  0.1119
    1CHOL   ROH14753   8.307   6.122   6.280 -0.2551  0.1879 -0.1151
    1CHOL    R114754   8.281   5.971   6.042 -0.1025  0.0895 -0.0722
    1CHOL    R214755   8.067   5.802   5.997 -0.0500  0.0318 -0.1200
    1CHOL    R314756   8.041   5.948   5.769  0.0440 -0.0592 -0.1895
    1CHOL    R414757   7.889   5.702   5.718  0.0411 -0.0644 -0.1441
    1CHOL    R514758   8.047   5.785   5.593  0.0919 -0.1303 -0.1211
    1CHOL    C114759   7.760   5.782   5.342  0.1825 -0.2059 -0.2233
    1CHOL    C214760   7.597   5.424   5.215  0.1296  0.2958  0.3495
    1CHOL   ROH14761   4.424  29.624   4.266 -0.0529  0.0565  0.1636
    1CHOL    R114762   4.537  29.454   4.461  0.1169  0.0552  0.0678
    1CHOL    R214763   4.804  29.463   4.531  0.1088  0.2908  0.0824
    1CHOL    R314764   4.704  29.494   4.782  0.0641  0.0416  0.0965
    1CHOL    R414765   4.969  29.377   4.823  0.1521  0.2216  0.0371
    1CHOL    R514766   4.781  29.301   4.901  0.2050  0.0206 -0.0283
    1CHOL    C114767   4.971  29.355   5.227  0.1354 -0.0522  0.0238
    1CHOL    C214768   4.964  29.100   5.579  0.0461 -0.0873  0.0080
    1CHOL   ROH14769  26.638  20.587   2.595 -0.1564  0.0051 -0.0178
    1CHOL    R114770  26.452  20.500   2.790 -0.2324  0.0689 -0.0616
    1CHOL    R214771  26.529  20.363   3.018 -0.3489 -0.0963 -0.1234
    1CHOL    R314772  26.392  20.561   3.143 -0.1910 -0.0417 -0.0336
    1CHOL    R414773  26.383  20.335   3.330 -0.2511 -0.0865 -0.0766
    1CHOL    R514774  26.213  20.448   3.255 -0.2176  0.0304  0.0053
    1CHOL    C114775  26.170  20.505   3.630 -0.0460 -0.0296  0.0349
    1CHOL    C214776  26.131  20.284   3.899 -0.1234  0.0392 -0.0339
    1CHOL   ROH14777  26.382  19.601   5.678  0.2992 -0.1285 -0.0423
    1CHOL    R114778  26.495  19.674   5.429  0.1899 -0.0688 -0.0756
    1CHOL    R214779  26.548  19.490   5.230  0.2333 -0.0431 -0.0899
    1CHOL    R314780  26.397  19.659   5.079  0.0982 -0.1250 -0.0475
    1CHOL    R414781  26.497  19.458   4.889  0.0645 -0.1296 -0.0571
    1CHOL    R514782  26.516  19.675   4.871 -0.0169 -0.1283 -0.1130
    1CHOL    C114783  26.325  19.598   4.550 -0.1607 -0.2568  0.0018
    1CHOL    C214784  26.446  19.453   4.245  0.0190  0.0675  0.0277
    1CHOL   ROH14785   3.553  22.657   3.291  0.0655  0.1258  0.0534
    1CHOL    R114786   3.574  22.467   3.500  0.1603  0.1710  0.0845
    1CHOL    R214787   3.608  22.539   3.764 -0.0121  0.2362  0.0857
    1CHOL    R314788   3.389  22.383   3.801  0.1176  0.0328  0.0223
    1CHOL    R414789   3.485  22.442   4.072 -0.2857  0.5420  0.0777
    1CHOL    R514790   3.445  22.245   3.989  0.0514  0.3643  0.3017
    1CHOL    C114791   3.206  22.240   4.286 -0.3233  0.5292  0.0134
    1CHOL    C214792   3.316  21.934   4.583 -0.2623 -0.1328  0.1957
    1CHOL   ROH14793  25.359   1.864   4.298  0.1787 -0.1274  0.1448
    1CHOL    R114794  25.343   1.808   4.575 -0.0919 -0.0820  0.1402
    1CHOL    R214795  25.438   1.982   4.768 -0.1019 -0.1396  0.1940
    1CHOL    R314796  25.186   1.960   4.866 -0.2026  0.0827 -0.0025
    1CHOL    R414797  25.342   2.073   5.087 -0.2139 -0.2697  0.1985
    1CHOL    R514798  25.216   1.895   5.094 -0.4360 -0.1327 -0.0262
    1CHOL    C114799  25.049   2.105   5.365 -0.3735 -0.1367  0.0167
    1CHOL    C214800  24.718   2.256   5.627  0.0450  0.1534 -0.0047
    1CHOL   ROH14801   4.636  27.075   4.225 -0.3646  0.0590  0.1649
    1CHOL    R114802   4.392  27.041   4.364 -0.3688  0.0667  0.1603
    1CHOL    R214803   4.305  27.218   4.558 -0.4200  0.1283  0.0836
    1CHOL    R314804   4.081  27.225   4.403 -0.4082  0.0214  0.0616
    1CHOL    R414805   3.983  27.255   4.677 -0.4559 -0.0868  0.0555
    1CHOL    R514806   3.917  27.108   4.531 -0.3518 -0.1003  0.0224
    1CHOL    C114807   3.585  27.283   4.602 -0.4657 -0.3122  0.0184
    1CHOL    C214808   3.254  27.578   4.612  0.0787  0.0539  0.0304
    1CHOL   ROH14809  28.127  22.383   6.086  0.1659 -0.1016 -0.0017
    1CHOL    R114810  28.002  22.363   5.833 -0.0247  0.1096  0.0727
    1CHOL    R214811  27.884  22.579   5.708  0.3374  0.3350  0.1121
    1CHOL    R314812  28.049  22.509   5.503  0.0832 -0.0325  0.0231
    1CHOL    R414813  27.851  22.688   5.382  0.2146  0.1491  0.0607
    1CHOL    R514814  27.903  22.488   5.314 -0.1057  0.0243  0.1566
    1CHOL    C114815  27.986  22.686   4.999 -0.0956 -0.3043 -0.0529
    1CHOL    C214816  28.140  22.744   4.571  0.2561  0.2165 -0.1136
    1CHOL   ROH14817   3.758  11.827   5.322  0.2109  0.1733  0.3151
    1CHOL    R114818   3.493  11.774   5.241  0.2974  0.0364  0.1138
    1CHOL    R214819   3.295  11.697   5.417  0.2130 -0.1116 -0.0422
    1CHOL    R314820   3.162  11.909   5.312  0.1661 -0.1667 -0.0949
    1CHOL    R414821   2.952  11.736   5.422  0.2110 -0.1357  0.0404
    1CHOL    R514822   2.963  11.814   5.218  0.1459 -0.2222  0.0035
    1CHOL    C114823   2.627  11.959   5.326  0.1659 -0.2016  0.0389
    1CHOL    C214824   2.250  11.719   5.260  0.0041  0.1193  0.1428
    1CHOL   ROH14825  28.595  16.979   5.716  0.0669  0.0999  0.0306
    1CHOL    R114826  28.464  16.970   5.465 -0.0386 -0.0660  0.0908
    1CHOL    R214827  28.600  16.946   5.226 -0.1182  0.0818  0.0321
    1CHOL    R314828  28.434  16.734   5.190  0.1102 -0.1165  0.1165
    1CHOL    R414829  28.565  16.770   4.931 -0.0729  0.0549  0.0421
    1CHOL    R514830  28.351  16.760   4.967 -0.0467 -0.2014  0.1618
    1CHOL    C114831  28.390  16.468   4.725  0.1676 -0.1469  0.1273
    1CHOL    C214832  28.445  16.351   4.360  0.2030 -0.3134  0.1742
    1CHOL   ROH14833  26.336  12.975   2.836 -0.0749 -0.1915 -0.0768
    1CHOL    R114834  26.312  12.794   3.053 -0.2818 -0.2638 -0.1613
    1CHOL    R214835  26.389  12.859   3.311 -0.1263 -0.5022 -0.1607
    1CHOL    R314836  26.135  12.786   3.371 -0.2183 -0.1737 -0.1173
    1CHOL    R414837  26.273  12.789   3.628 -0.0826 -0.5164 -0.1459
    1CHOL    R514838  26.158  12.624   3.545 -0.3619 -0.3219 -0.2133
    1CHOL    C114839  25.966  12.680   3.870 -0.1435 -0.2162 -0.0966
    1CHOL    C214840  26.141  12.824   4.089  0.0608 -0.0467  0.0047
    1CHOL   ROH14841  24.450  22.846   3.194 -0.0135  0.0646 -0.1794
    1CHOL    R114842  24.492  22.706   3.436 -0.1822  0.1410 -0.1044
    1CHOL    R214843  24.706  22.536   3.474 -0.3849 -0.1001 -0.0170
    1CHOL    R314844  24.750  22.692   3.693 -0.1948 -0.0340 -0.0997
    1CHOL    R414845  24.928  22.462   3.729 -0.2896 -0.1098 -0.1020
    1CHOL    R514846  24.781  22.536   3.872 -0.1805  0.0204 -0.0540
    1CHOL    C114847  25.098  22.565   4.082 -0.0558 -0.0533 -0.2292
    1CHOL    C214848  25.418  22.604   4.250 -0.1239 -0.1219  0.1313
    1CHOL   ROH14849   2.919  22.111   6.197 -0.0915  0.1366  0.0981
    1CHOL    R114850   2.884  22.056   5.921 -0.0394  0.0760  0.1034
    1CHOL    R214851   2.639  21.989   5.813 -0.0374  0.1441  0.0571
    1CHOL    R314852   2.691  22.197   5.646  0.0895  0.0786  0.0134
    1CHOL    R414853   2.524  22.015   5.488 -0.1150  0.1990  0.0884
    1CHOL    R514854   2.719  22.095   5.431 -0.0626  0.0258  0.0179
    1CHOL    C114855   2.506  22.226   5.142 -0.0409  0.1695  0.0655
    1CHOL    C214856   2.186  22.014   5.100  0.0449  0.0828  0.1189
    1CHOL   ROH14857   5.323  16.970   2.652  0.2734  0.1629 -0.0639
    1CHOL    R114858   5.300  17.155   2.866 -0.0372  0.0789 -0.0192
    1CHOL    R214859   5.111  17.129   3.066 -0.0323 -0.2585 -0.0506
    1CHOL    R314860   5.328  17.144   3.228 -0.0734  0.0279 -0.0184
    1CHOL    R414861   5.101  17.206   3.402 -0.1948 -0.3959 -0.0226
    1CHOL    R514862   5.280  17.327   3.375 -0.3811 -0.0998  0.0441
    1CHOL    C114863   5.300  17.265   3.751 -0.3279 -0.2071  0.0240
    1CHOL    C214864   5.368  17.272   4.093  0.0808  0.1253  0.1112
    1CHOL   ROH14865   7.434  15.079   2.580  0.0704  0.0201  0.0403
    1CHOL    R114866   7.315  15.239   2.781  0.1113  0.1247 -0.0174
    1CHOL    R214867   7.133  15.138   2.963 -0.0393  0.2731 -0.0796
    1CHOL    R314868   7.306  15.243   3.145 -0.0278  0.1541 -0.0216
    1CHOL    R414869   7.047  15.240   3.282 -0.0285  0.1425 -0.0346
    1CHOL    R514870   7.179  15.412   3.258  0.0045  0.1257  0.0527
    1CHOL    C114871   7.159  15.397   3.639 -0.0114 -0.0454  0.0459
    1CHOL    C214872   6.930  15.428   3.845  0.1149 -0.1310 -0.0695
    1CHOL   ROH14873  25.876  14.963   5.720 -0.0925  0.3486 -0.0034
    1CHOL    R114874  26.055  15.144   5.596 -0.0797  0.2712 -0.0968
    1CHOL    R214875  26.304  15.068   5.504 -0.0840  0.2094 -0.0404
    1CHOL    R314876  26.215  15.177   5.271 -0.0607  0.0861 -0.1091
    1CHOL    R414877  26.507  15.169   5.243 -0.0420  0.1345 -0.0378
    1CHOL    R514878  26.379  15.343   5.217 -0.0794  0.1005 -0.1436
    1CHOL    C114879  26.542  15.330   4.873  0.0043 -0.0248 -0.1008
    1CHOL    C214880  26.705  15.255   4.504 -0.0092 -0.0991 -0.1865
    1CHOL   ROH14881   2.340  22.931   6.482  0.0186  0.2695  0.0969
    1CHOL    R114882   2.317  22.850   6.212 -0.2778  0.1719  0.1482
    1CHOL    R214883   2.133  22.961   6.038 -0.1271  0.4727  0.1831
    1CHOL    R314884   2.353  23.006   5.885 -0.0948 -0.0723  0.0472
    1CHOL    R414885   2.126  23.057   5.706 -0.1119  0.6092  0.2211
    1CHOL    R514886   2.293  22.921   5.669 -0.4883  0.1529  0.0549
    1CHOL    C114887   2.328  23.155   5.369 -0.0728  0.1771  0.1155
    1CHOL    C214888   1.998  23.189   5.183  0.5729 -0.0490  0.0810
    1CHOL   ROH14889   4.336  17.744   2.264  0.1046 -0.1102 -0.0077
    1CHOL    R114890   4.258  17.705   2.533 -0.0201 -0.0988 -0.0409
    1CHOL    R214891   4.438  17.716   2.743 -0.0990 -0.1837  0.0346
    1CHOL    R314892   4.262  17.899   2.841 -0.0674 -0.1210 -0.0266
    1CHOL    R414893   4.343  17.741   3.075 -0.3987 -0.3147 -0.0382
    1CHOL    R514894   4.139  17.780   3.008 -0.3105 -0.1361 -0.2122
    1CHOL    C114895   4.123  17.928   3.359 -0.5435 -0.3323 -0.1381
    1CHOL    C214896   4.053  18.040   3.696  0.2165 -0.0278 -0.2921
    1CHOL   ROH14897  23.669  14.327   2.886 -0.3470  0.0304  0.0109
    1CHOL    R114898  23.819  14.379   3.120 -0.2672 -0.1250 -0.0041
    1CHOL    R214899  23.899  14.634   3.191 -0.0811 -0.1946  0.0404
    1CHOL    R314900  23.774  14.573   3.425 -0.0792 -0.1632  0.0498
    1CHOL    R414901  24.004  14.736   3.504 -0.0125 -0.2474  0.0349
    1CHOL    R514902  23.953  14.538   3.581 -0.0743 -0.2343  0.0298
    1CHOL    C114903  23.948  14.738   3.906  0.0291 -0.2487  0.0405
    1CHOL    C214904  23.793  14.884   4.254  0.0703 -0.1656 -0.0751
    1CHOL   ROH14905   6.222  14.185   6.047  0.0346  0.1304 -0.0979
    1CHOL    R114906   6.349  14.246   5.801  0.0189  0.0268 -0.1307
    1CHOL    R214907   6.326  14.084   5.578 -0.2545  0.0966 -0.1490
    1CHOL    R314908   6.243  14.315   5.460 -0.0215  0.2189 -0.0827
    1CHOL    R414909   6.347  14.153   5.240 -0.3954  0.0638 -0.1662
    1CHOL    R514910   6.406  14.356   5.289 -0.0743 -0.0077 -0.1988
    1CHOL    C114911   6.282  14.409   4.932 -0.2588  0.1594 -0.1139
    1CHOL    C214912   6.392  14.436   4.603  0.0344 -0.1026 -0.1342
    1CHOL   ROH14913   6.303  11.475   3.235  0.1718 -0.0661  0.0325
    1CHOL    R114914   6.475  11.564   3.441  0.0731 -0.1156  0.1375
    1CHOL    R214915   6.402  11.560   3.707 -0.0407 -0.2170  0.1069
    1CHOL    R314916   6.632  11.418   3.735 -0.0349 -0.1984  0.1543
    1CHOL    R414917   6.618  11.586   3.976  0.0663  0.0321 -0.0003
    1CHOL    R514918   6.785  11.572   3.836  0.0107 -0.1072 -0.0527
    1CHOL    C114919   6.960  11.468   4.158  0.1339  0.1947 -0.0182
    1CHOL    C214920   6.952  11.423   4.462 -0.1417 -0.0197  0.2698
    1CHOL   ROH14921   6.885  20.311   5.564  0.2164  0.0679  0.1014
    1CHOL    R114922   6.980  20.344   5.299  0.2565 -0.0129  0.1051
    1CHOL    R214923   7.043  20.129   5.137  0.1280 -0.0682  0.1234
    1CHOL    R314924   6.869  20.249   4.965  0.2164  0.0348  0.1053
    1CHOL    R414925   7.068  20.121   4.792  0.1092 -0.1544  0.1244
    1CHOL    R514926   7.007  20.330   4.787  0.2734 -0.1084  0.0849
    1CHOL    C114927   6.918  20.228   4.431  0.1812 -0.1078  0.1080
    1CHOL    C214928   6.815  20.165   4.032 -0.1048  0.0641  0.3601
    1CHOL   ROH14929  28.745  22.971   2.924 -0.0235 -0.0444  0.0174
    1CHOL    R114930  28.709  22.835   3.170  0.0406  0.0034  0.0531
    1CHOL    R214931  28.905  22.677   3.282  0.0797  0.0534  0.0482
    1CHOL    R314932  28.866  22.837   3.498  0.1022  0.0908  0.0248
    1CHOL    R414933  28.890  22.567   3.610  0.1121  0.0991  0.0650
    1CHOL    R514934  28.727  22.708   3.644  0.1130  0.1099  0.0579
    1CHOL    C114935  28.845  22.655   4.003  0.1521  0.1609  0.0527
    1CHOL    C214936  28.613  22.639   4.364  0.3080 -0.2098 -0.0495
    1CHOL   ROH14937  17.410  21.294   4.822 -0.1322 -0.0326 -0.0229
    1CHOL    R114938  17.622  21.446   4.714 -0.1315 -0.0321 -0.0183
    1CHOL    R214939  17.594  21.604   4.490 -0.1327 -0.0205 -0.0051
    1CHOL    R314940  17.691  21.799   4.653 -0.1209 -0.0299  0.0005
    1CHOL    R414941  17.687  21.921   4.386 -0.2927  0.0391  0.0271
    1CHOL    R514942  17.858  21.909   4.521 -0.2202  0.0617 -0.0556
    1CHOL    C114943  17.833  22.287   4.480 -0.3747  0.0651  0.0512
    1CHOL    C214944  17.544  22.484   4.212 -0.1208  0.1892 -0.0533
    1CHOL   ROH14945   2.652  19.087   2.052 -0.0548 -0.1604  0.0669
    1CHOL    R114946   2.651  18.954   2.303 -0.0181 -0.0105  0.1468
    1CHOL    R214947   2.842  19.001   2.497  0.0123  0.1008  0.0855
    1CHOL    R314948   2.624  19.050   2.653  0.0407  0.1981  0.0964
    1CHOL    R414949   2.834  18.971   2.841  0.0139  0.0727  0.0836
    1CHOL    R514950   2.635  18.884   2.824 -0.0349  0.1732  0.0816
    1CHOL    C114951   2.626  18.999   3.188  0.0415  0.1475  0.0929
    1CHOL    C214952   2.585  18.950   3.467  0.2048 -0.0554 -0.1710
    1CHOL   ROH14953   3.722  19.173   2.222  0.1916  0.1811 -0.2318
    1CHOL    R114954   3.788  19.109   2.490  0.0401  0.0307 -0.2293
    1CHOL    R214955   4.048  19.094   2.580 -0.0101 -0.0411 -0.0952
    1CHOL    R314956   3.960  19.272   2.766 -0.0942 -0.1334 -0.0457
    1CHOL    R414957   4.204  19.158   2.881  0.0252  0.0330 -0.1285
    1CHOL    R514958   4.008  19.166   2.975  0.0426 -0.1289 -0.0733
    1CHOL    C114959   4.213  19.361   3.232 -0.0333 -0.0107 -0.1015
    1CHOL    C214960   4.274  19.676   3.373  0.2145  0.0410  0.1425
    1CHOL   ROH14961   7.334  16.673   2.581  0.3182 -0.0776  0.0707
    1CHOL    R114962   7.143  16.652   2.789  0.2589 -0.0874  0.0154
    1CHOL    R214963   7.181  16.489   3.010  0.2030 -0.0850  0.0258
    1CHOL    R314964   7.133  16.719   3.147  0.1510 -0.0882  0.0131
    1CHOL    R414965   7.000  16.511   3.304  0.2426 -0.1207  0.0527
    1CHOL    R514966   6.910  16.694   3.229  0.1710 -0.1549  0.0505
    1CHOL    C114967   6.850  16.739   3.603  0.2168 -0.1443  0.0565
    1CHOL    C214968   6.904  16.575   3.872  0.0545  0.0707  0.3925
    1CHOL   ROH14969  30.120   7.203   6.025  0.2043 -0.0644 -0.1944
    1CHOL    R114970  30.189   7.381   5.816  0.2512 -0.0186 -0.1393
    1CHOL    R214971   0.082   7.379   5.695  0.2317 -0.0797 -0.1690
    1CHOL    R314972  30.292   7.352   5.468  0.1945  0.0657 -0.1647
    1CHOL    R414973   0.188   7.473   5.380  0.3750 -0.2954 -0.1879
    1CHOL    R514974  30.343   7.548   5.340  0.4703 -0.0264 -0.2088
    1CHOL    C114975   0.113   7.502   4.983  0.4236 -0.2846 -0.1949
    1CHOL    C214976   0.051   7.274   4.640 -0.0167 -0.2409 -0.0802
    1CHOL   ROH14977  20.832  22.848   4.264 -0.0358 -0.0106 -0.0401
    1CHOL    R114978  20.998  22.623   4.221  0.0305  0.0593 -0.1579
    1CHOL    R214979  21.023  22.419   4.407  0.2629  0.0769 -0.1666
    1CHOL    R314980  20.953  22.262   4.196  0.1674  0.0384 -0.1059
    1CHOL    R414981  21.075  22.078   4.388  0.0817  0.0420 -0.0477
    1CHOL    R514982  21.130  22.103   4.179  0.0822 -0.0620 -0.0599
    1CHOL    C114983  21.039  21.732   4.180 -0.1135 -0.0146  0.0785
    1CHOL    C214984  21.029  21.673   3.828 -0.0275  0.2365  0.3370
    1CHOL   ROH14985  29.826  23.119   3.010  0.4372  0.0649 -0.0775
    1CHOL    R114986  29.977  23.125   3.250  0.2952 -0.0814  0.0183
    1CHOL    R214987  29.983  23.346   3.416  0.4799 -0.0477 -0.0287
    1CHOL    R314988  29.907  23.166   3.605  0.1179  0.0896 -0.0344
    1CHOL    R414989  30.073  23.361   3.749  0.4721 -0.2137 -0.0186
    1CHOL    R514990  30.100  23.144   3.746  0.0669 -0.2711 -0.0122
    1CHOL    C114991  30.054  23.200   4.121  0.1274 -0.1815 -0.0182
    1CHOL    C214992  30.070  22.818   4.397 -0.0248 -0.0500  0.0976
    1CHOL   ROH14993  10.901   0.529   3.829  0.2040 -0.1097 -0.1471
    1CHOL    R114994  10.733   0.729   3.938  0.1135 -0.2636 -0.0004
    1CHOL    R214995  10.691   0.756   4.210  0.4643 -0.1995  0.0507
    1CHOL    R314996  10.771   1.012   4.164  0.0952 -0.1170 -0.1775
    1CHOL    R414997  10.653   1.017   4.433  0.5912 -0.1844  0.0557
    1CHOL    R514998  10.600   1.146   4.265  0.1256 -0.2839  0.1103
    1CHOL    C114999  10.706   1.410   4.520  0.3185 -0.0982 -0.1557
    1CHOL    C215000  10.871   1.643   4.650 -0.0268 -0.0775 -0.2324
    1CHOL   ROH15001   5.582  10.515   5.997  0.2105 -0.0644  0.0572
    1CHOL    R115002   5.644  10.380   5.756  0.2659  0.0484  0.0074
    1CHOL    R215003   5.452  10.257   5.600  0.3431 -0.1802  0.0880
    1CHOL    R315004   5.558  10.413   5.404  0.0449 -0.0131  0.0544
    1CHOL    R415005   5.366  10.239   5.266  0.2873 -0.3356  0.1097
    1CHOL    R515006   5.576  10.266   5.215  0.2366  0.0045  0.0575
    1CHOL    C115007   5.415  10.376   4.888 -0.0252 -0.2692  0.0909
    1CHOL    C215008   5.486  10.001   4.716  0.1237 -0.1012 -0.2184
    1CHOL   ROH15009   0.341  20.763   2.472  0.1872  0.0239  0.0230
    1CHOL    R115010   0.397  20.625   2.713  0.0655 -0.0188  0.0287
    1CHOL    R215011   0.475  20.754   2.944  0.2356 -0.0809  0.0135
    1CHOL    R315012   0.264  20.620   3.051  0.0968  0.1570  0.0428
    1CHOL    R415013   0.444  20.668   3.277  0.1521 -0.0047  0.0252
    1CHOL    R515014   0.363  20.476   3.215 -0.0538  0.0752  0.0579
    1CHOL    C115015   0.229  20.492   3.572 -0.0269  0.2631  0.0595
    1CHOL    C215016   0.615  20.352   3.744  0.0366  0.3120  0.1904
    1CHOL   ROH15017  29.980  18.993   5.768  0.1255 -0.1775 -0.0470
    1CHOL    R115018  29.933  18.959   5.491  0.2055 -0.0314 -0.0794
    1CHOL    R215019  29.713  19.067   5.363  0.1026 -0.1845 -0.0324
    1CHOL    R315020  29.901  19.175   5.200  0.0080  0.1460  0.0705
    1CHOL    R415021  29.664  19.141   5.029  0.1153 -0.1513 -0.0270
    1CHOL    R515022  29.866  19.067   4.989  0.2447  0.1560  0.0224
    1CHOL    C115023  29.813  19.287   4.681  0.0339  0.1780  0.0727
    1CHOL    C215024  29.683  19.158   4.356  0.1527  0.0201  0.0692
    1CHOL   ROH15025  22.747  24.406   2.994 -0.0884  0.0168 -0.1370
    1CHOL    R115026  22.756  24.210   3.199 -0.0247  0.1163 -0.0434
    1CHOL    R215027  22.744  24.275   3.467 -0.0821  0.2382 -0.0721
    1CHOL    R315028  22.538  24.097   3.467 -0.0054  0.1489 -0.0153
    1CHOL    R415029  22.610  24.129   3.750 -0.0556  0.3029 -0.0260
    1CHOL    R515030  22.595  23.941   3.641  0.0381  0.2499  0.0584
    1CHOL    C115031  22.339  23.878   3.916  0.0317  0.2569  0.0540
    1CHOL    C215032  22.025  23.985   4.113 -0.1912  0.2135  0.2100
    1CHOL   ROH15033   5.585  21.450   2.000  0.0003 -0.1449  0.0420
    1CHOL    R115034   5.546  21.244   2.189 -0.0634 -0.0800  0.1000
    1CHOL    R215035   5.720  21.200   2.400 -0.0078 -0.1533  0.0384
    1CHOL    R315036   5.493  21.221   2.549  0.0650  0.0297  0.1267
    1CHOL    R415037   5.693  21.109   2.732 -0.0035 -0.3329 -0.0093
    1CHOL    R515038   5.496  21.027   2.688 -0.1229 -0.0664  0.0017
    1CHOL    C115039   5.464  21.076   3.065  0.0672 -0.2657  0.0458
    1CHOL    C215040   5.579  21.146   3.320  0.0460  0.1037 -0.1567
    1CHOL   ROH15041  23.560  12.848   5.610  0.3613 -0.0302  0.1067
    1CHOL    R115042  23.597  12.822   5.330  0.2973 -0.4289  0.1283
    1CHOL    R215043  23.713  13.020   5.176 -0.2360 -0.3948 -0.2704
    1CHOL    R315044  23.878  12.819   5.099  0.2187 -0.1516  0.0270
    1CHOL    R415045  23.856  12.990   4.863  0.0684 -0.4035 -0.1325
    1CHOL    R515046  23.818  12.776   4.871  0.4772 -0.4714  0.0175
    1CHOL    C115047  24.095  12.783   4.609  0.6724 -0.1803  0.2270
    1CHOL    C215048  24.148  12.827   4.256 -0.0552  0.2931 -0.0721
    1CHOL   ROH15049   4.786  15.913   2.422 -0.2369 -0.3600 -0.0328
    1CHOL    R115050   4.840  15.829   2.687 -0.1123 -0.1975 -0.0059
    1CHOL    R215051   5.027  15.955   2.847 -0.1102 -0.0343 -0.1360
    1CHOL    R315052   4.818  15.975   3.020 -0.0597 -0.0307 -0.0738
    1CHOL    R415053   5.041  16.106   3.158 -0.0116 -0.0406 -0.1366
    1CHOL    R515054   4.916  15.945   3.236  0.0048 -0.0392 -0.1025
    1CHOL    C115055   4.852  16.213   3.500  0.0932 -0.0407 -0.0786
    1CHOL    C215056   4.625  16.216   3.841 -0.1684 -0.0865  0.0762
    1CHOL   ROH15057  18.737   3.667   5.949 -0.0862 -0.0962  0.0036
    1CHOL    R115058  18.702   3.625   5.671 -0.0013  0.0783 -0.0348
    1CHOL    R215059  18.783   3.809   5.482  0.1687  0.1433  0.0996
    1CHOL    R315060  18.917   3.596   5.379  0.0965  0.1304  0.0309
    1CHOL    R415061  18.850   3.761   5.146 -0.0666  0.1066  0.0560
    1CHOL    R515062  18.805   3.549   5.172 -0.0501  0.1082  0.1124
    1CHOL    C115063  19.015   3.533   4.854 -0.2712  0.0732 -0.0340
    1CHOL    C215064  18.854   3.655   4.438  0.1248 -0.3096 -0.1794
    1CHOL   ROH15065  10.874  15.261   6.309  0.2553 -0.0799 -0.1649
    1CHOL    R115066  10.909  15.090   6.086  0.2363 -0.1441 -0.1163
    1CHOL    R215067  11.130  14.926   6.058  0.0758 -0.3823  0.0718
    1CHOL    R315068  10.942  14.731   6.032 -0.1105 -0.1931 -0.0547
    1CHOL    R415069  11.166  14.642   5.865 -0.0658 -0.4040  0.0739
    1CHOL    R515070  10.959  14.664   5.802 -0.0214 -0.1880 -0.0612
    1CHOL    C115071  11.012  14.294   5.727 -0.3232 -0.2391 -0.0436
    1CHOL    C215072  10.827  14.140   5.564 -0.0091  0.2692  0.1618
    1CHOL   ROH15073   4.381  20.240   5.580 -0.1625  0.1230  0.0951
    1CHOL    R115074   4.455  20.241   5.307 -0.1107 -0.0253  0.1081
    1CHOL    R215075   4.327  20.086   5.118 -0.1298 -0.0646  0.1542
    1CHOL    R315076   4.296  20.324   4.990 -0.0216 -0.1102  0.0403
    1CHOL    R415077   4.338  20.128   4.775  0.0001 -0.2167  0.1383
    1CHOL    R515078   4.450  20.313   4.807  0.0397 -0.2322  0.0971
    1CHOL    C115079   4.316  20.377   4.455  0.1773 -0.3483  0.0222
    1CHOL    C215080   4.470  20.541   4.065  0.1032  0.1990 -0.1843
    1CHOL   ROH15081   5.002   0.751   5.584  0.1059  0.0558  0.0655
    1CHOL    R115082   5.114   0.494   5.544  0.0689  0.0451  0.0352
    1CHOL    R215083   5.175   0.395   5.293  0.0466  0.0642  0.0249
    1CHOL    R315084   5.420   0.357   5.403  0.0460  0.0160  0.0120
    1CHOL    R415085   5.426   0.203   5.153  0.0238  0.0672 -0.0220
    1CHOL    R515086   5.473   0.129   5.353  0.0210  0.0198 -0.0373
    1CHOL    C115087   5.803   0.056   5.175  0.0100  0.0236 -0.0614
    1CHOL    C215088   6.035  30.055   5.209 -0.0524  0.1336  0.1422
    1CHOL   ROH15089  17.069  13.686   3.706 -0.0020  0.1029  0.0933
    1CHOL    R115090  17.089  13.661   3.987 -0.0041  0.1591  0.0983
    1CHOL    R215091  17.112  13.879   4.154 -0.1624  0.2000  0.0655
    1CHOL    R315092  16.896  13.769   4.276 -0.0962  0.0732  0.0704
    1CHOL    R415093  17.050  13.890   4.494 -0.0315 -0.0463  0.0999
    1CHOL    R515094  16.981  13.684   4.483  0.0030 -0.0559 -0.0191
    1CHOL    C115095  16.811  13.793   4.806  0.1071 -0.3086  0.1246
    1CHOL    C215096  16.915  13.910   5.181 -0.0907  0.1488  0.0941
    1CHOL   ROH15097   7.589  17.592   2.697 -0.2120  0.1611 -0.0200
    1CHOL    R115098   7.654  17.673   2.960 -0.0111  0.0000 -0.0181
    1CHOL    R215099   7.465  17.767   3.138  0.1704  0.1798  0.0807
    1CHOL    R315100   7.566  17.571   3.298 -0.0097  0.0046 -0.0157
    1CHOL    R415101   7.377  17.717   3.468  0.3542  0.3054  0.1508
    1CHOL    R515102   7.586  17.675   3.513  0.3316 -0.0343 -0.0218
    1CHOL    C115103   7.419  17.505   3.811  0.2921  0.2139  0.1010
    1CHOL    C215104   7.119  17.448   4.089  0.0439  0.0183 -0.0990
    1CHOL   ROH15105  26.477   7.725   5.773 -0.0008 -0.0312 -0.0684
    1CHOL    R115106  26.660   7.870   5.612 -0.0395  0.0886 -0.0075
    1CHOL    R215107  26.861   7.747   5.467  0.1532  0.2252  0.1303
    1CHOL    R315108  26.749   7.881   5.259  0.1389  0.0707  0.0377
    1CHOL    R415109  27.036   7.885   5.203  0.1553  0.2904  0.1665
    1CHOL    R515110  26.904   8.057   5.212  0.0126  0.1822  0.0526
    1CHOL    C115111  27.034   8.092   4.855  0.1430  0.1832  0.1007
    1CHOL    C215112  27.181   8.320   4.556  0.0462  0.0826  0.0060
    1CHOL   ROH15113   3.728  10.282   5.921 -0.0840  0.0007  0.0833
    1CHOL    R115114   3.639  10.015   5.896 -0.0735  0.0047  0.0005
    1CHOL    R215115   3.376   9.950   5.845 -0.0719  0.0104 -0.0129
    1CHOL    R315116   3.484   9.810   5.638 -0.0721  0.0802 -0.0605
    1CHOL    R415117   3.197   9.753   5.624 -0.0414 -0.1208  0.0782
    1CHOL    R515118   3.359   9.606   5.631  0.0657 -0.0088  0.0063
    1CHOL    C115119   3.196   9.507   5.301 -0.0238 -0.1317  0.0865
    1CHOL    C215120   3.155   9.399   4.859  0.1278 -0.0628 -0.0619
    1CHOL   ROH15121   2.210  19.075   5.652 -0.0393 -0.1585  0.0473
    1CHOL    R115122   2.189  18.977   5.387  0.0888 -0.2413  0.0671
    1CHOL    R215123   2.185  19.144   5.167 -0.0800 -0.2938  0.0316
    1CHOL    R315124   2.392  18.988   5.085  0.1014 -0.0839  0.0792
    1CHOL    R415125   2.278  19.098   4.838 -0.0885 -0.3488  0.0369
    1CHOL    R515126   2.313  18.887   4.882  0.1818 -0.2896  0.1444
    1CHOL    C115127   2.527  18.924   4.569  0.0769 -0.1839  0.0847
    1CHOL    C215128   2.571  18.814   4.201  0.0676  0.0982 -0.0407
    1CHOL   ROH15129  28.650  19.748   2.351 -0.0275  0.1628  0.1475
    1CHOL    R115130  28.592  19.627   2.600 -0.0477  0.1341  0.1281
    1CHOL    R215131  28.786  19.583   2.793 -0.0734  0.1465  0.1502
    1CHOL    R315132  28.613  19.721   2.951 -0.1155  0.1054  0.1415
    1CHOL    R415133  28.700  19.495   3.116 -0.0070  0.1571  0.1716
    1CHOL    R515134  28.494  19.552   3.072 -0.0382  0.0708  0.1774
    1CHOL    C115135  28.488  19.574   3.453 -0.0081  0.1247  0.1758
    1CHOL    C215136  28.413  19.520   3.663  0.1732 -0.1188 -0.1932
    1CHOL   ROH15137   0.588  11.239   6.332 -0.0173  0.1608  0.0452
    1CHOL    R115138   0.530  11.177   6.062 -0.1199  0.1734  0.0644
    1CHOL    R215139   0.675  10.991   5.918 -0.0889  0.2788 -0.0391
    1CHOL    R315140   0.430  10.882   5.875 -0.0506  0.1482  0.0663
    1CHOL    R415141   0.563  10.872   5.613 -0.1372  0.1714  0.0196
    1CHOL    R515142   0.368  10.959   5.657 -0.1668  0.0813  0.0740
    1CHOL    C115143   0.268  10.700   5.395 -0.1293 -0.0138  0.1529
    1CHOL    C215144   0.212  10.719   4.908  0.1298  0.1572  0.1895
    1CHOL   ROH15145   8.443  14.798   2.931  0.1498 -0.0621  0.0461
    1CHOL    R115146   8.291  14.988   3.076  0.2535  0.0942 -0.0465
    1CHOL    R215147   8.131  14.919   3.290 -0.0239  0.2386 -0.1994
    1CHOL    R315148   8.276  15.109   3.418  0.1037  0.0334 -0.0313
    1CHOL    R415149   8.043  15.065   3.591  0.0235  0.1165 -0.1248
    1CHOL    R515150   8.111  15.256   3.512  0.2053  0.1115  0.0219
    1CHOL    C115151   8.127  15.330   3.886  0.1711 -0.1473  0.0763
    1CHOL    C215152   8.234  15.378   4.133  0.2783 -0.1792  0.1547
    1CHOL   ROH15153  20.492  10.873   3.038 -0.0063  0.0286  0.0752
    1CHOL    R115154  20.487  10.902   3.319  0.0346 -0.0565  0.0854
    1CHOL    R215155  20.668  10.775   3.485  0.1549  0.0124  0.0107
    1CHOL    R315156  20.712  11.028   3.576  0.0085  0.0167  0.0719
    1CHOL    R415157  20.718  10.860   3.817  0.1950 -0.0487  0.0203
    1CHOL    R515158  20.595  11.037   3.785  0.0644 -0.1240  0.1096
    1CHOL    C115159  20.789  11.147   4.094  0.0812 -0.0803  0.0833
    1CHOL    C215160  20.552  11.152   4.351 -0.2163  0.1702 -0.1260
    1CHOL   ROH15161  24.198   4.617   3.810 -0.0303  0.2945  0.0335
    1CHOL    R115162  24.099   4.549   4.067  0.0007  0.2568  0.0348
    1CHOL    R215163  23.830   4.559   4.130 -0.0153  0.0246 -0.0016
    1CHOL    R315164  23.872   4.301   4.204  0.2087  0.0753  0.0601
    1CHOL    R415165  23.707   4.414   4.418  0.0454 -0.0268 -0.0008
    1CHOL    R515166  23.897   4.311   4.442  0.1418  0.1527  0.0676
    1CHOL    C115167  23.674   4.087   4.656  0.2910 -0.0092  0.0576
    1CHOL    C215168  23.857   4.311   4.911 -0.1953 -0.0003  0.2720
    1CHOL   ROH15169  27.751  15.754   5.913  0.0446 -0.0067  0.0179
    1CHOL    R115170  27.785  15.877   5.660  0.1584 -0.0431  0.0142
    1CHOL    R215171  27.928  15.759   5.455 -0.0073 -0.2162 -0.0077
    1CHOL    R315172  27.699  15.799   5.315  0.0173  0.0599  0.0257
    1CHOL    R415173  27.896  15.721   5.113 -0.0835 -0.0834 -0.0158
    1CHOL    R515174  27.771  15.899   5.109  0.0977  0.0467  0.0485
    1CHOL    C115175  27.662  15.736   4.782 -0.1049  0.2531  0.0109
    1CHOL    C215176  27.678  15.929   4.568 -0.0772 -0.0941  0.2052
    1CHOL   ROH15177  28.793   9.142   6.369  0.2162  0.2387  0.0522
    1CHOL    R115178  28.927   8.984   6.176  0.2185  0.1968  0.0878
    1CHOL    R215179  28.937   9.053   5.908  0.0684  0.0463  0.0413
    1CHOL    R315180  29.205   9.028   5.945  0.0981  0.2114 -0.0560
    1CHOL    R415181  29.175   9.085   5.660 -0.0572 -0.0316 -0.0903
    1CHOL    R515182  29.283   8.918   5.748  0.0659  0.0923 -0.0026
    1CHOL    C115183  29.565   9.081   5.550 -0.1024  0.0782 -0.2583
    1CHOL    C215184  29.890   9.088   5.363 -0.3172 -0.0095  0.0976
    1CHOL   ROH15185   2.024  20.451   5.749 -0.0222  0.0521  0.0295
    1CHOL    R115186   1.952  20.462   5.475 -0.0034  0.0602  0.0260
    1CHOL    R215187   2.034  20.665   5.307  0.0271  0.0475  0.0361
    1CHOL    R315188   2.125  20.458   5.155  0.0133  0.0420  0.0330
    1CHOL    R415189   2.116  20.687   4.972  0.2856  0.1257  0.1016
    1CHOL    R515190   2.023  20.493   4.941  0.1845  0.1858 -0.0341
    1CHOL    C115191   2.249  20.507   4.634  0.4231  0.1662  0.1369
    1CHOL    C215192   2.288  20.683   4.233 -0.0871  0.0670  0.2418
    1CHOL   ROH15193  11.420   7.282   5.956 -0.1032  0.2037 -0.0220
    1CHOL    R115194  11.442   7.207   5.684 -0.0167  0.0699  0.0211
    1CHOL    R215195  11.341   6.969   5.586 -0.1396  0.1002  0.0746
    1CHOL    R315196  11.213   7.133   5.411  0.0682  0.1190 -0.0643
    1CHOL    R415197  11.278   6.893   5.255 -0.1684 -0.0663  0.1165
    1CHOL    R515198  11.327   7.099   5.203  0.0670 -0.1549 -0.0241
    1CHOL    C115199  11.120   7.003   4.898  0.0099 -0.1455  0.0106
    1CHOL    C215200  11.340   7.045   4.587 -0.0415  0.3033 -0.0716
    1CHOL   ROH15201  27.494  14.751   5.883 -0.1448  0.2105 -0.0972
    1CHOL    R115202  27.380  14.811   5.631 -0.2877 -0.0376 -0.0939
    1CHOL    R215203  27.532  14.854   5.404 -0.3819  0.2959 -0.0957
    1CHOL    R315204  27.374  14.659   5.300  0.0328 -0.0577 -0.0951
    1CHOL    R415205  27.481  14.801   5.067 -0.4663  0.3702 -0.0951
    1CHOL    R515206  27.271  14.762   5.110 -0.3592 -0.1910  0.0299
    1CHOL    C115207  27.303  14.587   4.772 -0.1263  0.0817 -0.0943
    1CHOL    C215208  27.291  14.387   4.499 -0.0224  0.0563  0.0098
    1CHOL   ROH15209  19.116  11.247   3.148 -0.0841 -0.0350  0.0631
    1CHOL    R115210  19.110  11.242   3.431 -0.1970 -0.0366  0.0608
    1CHOL    R215211  19.300  11.370   3.586 -0.0932 -0.2777  0.1338
    1CHOL    R315212  19.082  11.486   3.699  0.0071 -0.0062  0.0569
    1CHOL    R415213  19.285  11.485   3.911 -0.0830 -0.3215  0.1504
    1CHOL    R515214  19.082  11.406   3.924 -0.2017 -0.0552  0.0430
    1CHOL    C115215  19.071  11.662   4.207  0.0171 -0.0924  0.0878
    1CHOL    C215216  18.889  11.746   4.531  0.0289  0.1638  0.3226
    1CHOL   ROH15217  26.573  16.459   2.384  0.0776  0.0045  0.0438
    1CHOL    R115218  26.481  16.504   2.647  0.2471  0.2616  0.0622
    1CHOL    R215219  26.462  16.303   2.835 -0.3086  0.2891  0.0516
    1CHOL    R315220  26.615  16.471   2.984  0.2184 -0.1509  0.0384
    1CHOL    R415221  26.493  16.290   3.179 -0.3013  0.1864  0.0473
    1CHOL    R515222  26.487  16.508   3.183  0.3394  0.2224  0.0557
    1CHOL    C115223  26.654  16.441   3.519  0.1978 -0.2864  0.0324
    1CHOL    C215224  26.701  16.512   3.887  0.1635 -0.2002 -0.0778
    1CHOL   ROH15225   4.688   9.100   3.134 -0.0289  0.1100 -0.2481
    1CHOL    R115226   4.452   9.112   3.290 -0.0343  0.1147 -0.2560
    1CHOL    R215227   4.433   8.996   3.541 -0.1275 -0.1093 -0.3628
    1CHOL    R315228   4.356   9.246   3.614  0.0271 -0.1261 -0.1359
    1CHOL    R415229   4.270   9.074   3.835 -0.0581 -0.2722 -0.2806
    1CHOL    R515230   4.146   9.214   3.724  0.0162 -0.0981 -0.1492
    1CHOL    C115231   4.104   9.354   4.076  0.1275 -0.3829 -0.0197
    1CHOL    C215232   4.140   9.688   4.265  0.1831  0.0908 -0.0027
    1CHOL   ROH15233  26.733  11.531   2.602  0.2184  0.3658  0.0801
    1CHOL    R115234  26.755  11.632   2.866  0.1659  0.2306  0.1371
    1CHOL    R215235  26.538  11.732   3.006  0.1560  0.2500  0.1065
    1CHOL    R315236  26.617  11.551   3.193  0.0171  0.1283  0.0502
    1CHOL    R415237  26.442  11.734   3.338  0.1070  0.1797  0.0935
    1CHOL    R515238  26.645  11.679   3.393  0.0657  0.0343  0.1045
    1CHOL    C115239  26.460  11.566   3.706 -0.0517  0.0246  0.0330
    1CHOL    C215240  26.763  11.459   3.910  0.3666  0.1282  0.0372
    1CHOL   ROH15241   9.831  16.238   5.975  0.0479  0.2495 -0.0160
    1CHOL    R115242   9.620  16.163   5.802  0.0369  0.0781  0.0691
    1CHOL    R215243   9.444  16.347   5.694 -0.0727 -0.0482  0.0319
    1CHOL    R315244   9.522  16.235   5.459 -0.0829 -0.1170  0.0609
    1CHOL    R415245   9.249  16.331   5.409 -0.0664 -0.0833  0.0293
    1CHOL    R515246   9.324  16.129   5.375 -0.0983 -0.1044  0.0798
    1CHOL    C115247   9.208  16.217   5.023 -0.0724 -0.1685  0.0549
    1CHOL    C215248   9.023  16.343   4.692 -0.0900 -0.1173  0.1376
    1CHOL   ROH15249  27.425  12.376   2.724 -0.0770  0.0954 -0.1097
    1CHOL    R115250  27.310  12.534   2.929 -0.0945 -0.0445 -0.0121
    1CHOL    R215251  27.251  12.433   3.179  0.2356 -0.1198  0.0321
    1CHOL    R315252  27.403  12.642   3.264  0.0568  0.0640 -0.0856
    1CHOL    R415253  27.218  12.590   3.486  0.3413 -0.2377  0.1056
    1CHOL    R515254  27.251  12.781   3.386 -0.0118 -0.1623  0.1053
    1CHOL    C115255  27.342  12.877   3.744  0.2346 -0.1339  0.0378
    1CHOL    C215256  27.003  12.817   3.992  0.2159  0.0387  0.1934
    1CHOL   ROH15257   2.156   9.714   5.106  0.2190 -0.0109  0.0104
    1CHOL    R115258   2.119   9.986   5.036  0.0000 -0.0988 -0.2315
    1CHOL    R215259   2.329  10.164   5.017 -0.1797  0.1443  0.0103
    1CHOL    R315260   2.228  10.207   4.768  0.1834 -0.1468 -0.1991
    1CHOL    R415261   2.404  10.437   4.818 -0.3729  0.2512  0.0803
    1CHOL    R515262   2.194  10.445   4.758 -0.2982 -0.2065 -0.3168
    1CHOL    C115263   2.353  10.636   4.469 -0.1447  0.0402 -0.0755
    1CHOL    C215264   2.477  10.887   4.605  0.2195  0.2002  0.1775
    1CHOL   ROH15265  28.989  15.447   2.580  0.1328  0.0405  0.0130
    1CHOL    R115266  29.078  15.553   2.827  0.0399  0.0711  0.0336
    1CHOL    R215267  28.916  15.566   3.050 -0.0114  0.0039  0.0002
    1CHOL    R315268  29.121  15.431   3.167  0.0171  0.0821  0.0406
    1CHOL    R415269  28.997  15.582   3.386 -0.1543 -0.0493  0.0377
    1CHOL    R515270  29.207  15.584   3.330 -0.1317  0.0836  0.1207
    1CHOL    C115271  29.236  15.465   3.691 -0.2106 -0.0066  0.0974
    1CHOL    C215272  29.201  15.488   4.163  0.0087 -0.0266  0.0744
    1CHOL   ROH15273   1.934  15.646   2.418 -0.1412  0.1585 -0.0786
    1CHOL    R115274   1.863  15.470   2.628 -0.0521  0.1658 -0.0407
    1CHOL    R215275   1.889  15.537   2.894 -0.0427  0.2185 -0.0514
    1CHOL    R315276   1.626  15.470   2.904 -0.0175  0.1277 -0.0123
    1CHOL    R415277   1.704  15.508   3.184  0.0128  0.1240 -0.0258
    1CHOL    R515278   1.608  15.332   3.099  0.0597  0.1024 -0.0257
    1CHOL    C115279   1.349  15.428   3.363  0.0687 -0.0162  0.0258
    1CHOL    C215280   1.258  15.627   3.627  0.0329 -0.3481 -0.1224
    1CHOL   ROH15281  29.588  18.893   2.437 -0.0409 -0.0705 -0.0054
    1CHOL    R115282  29.522  19.009   2.686 -0.0025  0.0052 -0.0296
    1CHOL    R215283  29.500  18.862   2.918 -0.1453  0.0452 -0.0139
    1CHOL    R315284  29.679  19.043   3.013 -0.0329 -0.0681 -0.0077
    1CHOL    R415285  29.587  18.898   3.251 -0.3943  0.2191  0.0346
    1CHOL    R515286  29.586  19.114   3.222 -0.1407  0.1997 -0.1427
    1CHOL    C115287  29.805  19.089   3.534 -0.4337  0.2141  0.0686
    1CHOL    C215288  29.815  19.249   3.891  0.0937  0.1458 -0.2087
    1CHOL   ROH15289  26.886  22.532   2.611 -0.0443  0.2019 -0.0546
    1CHOL    R115290  26.899  22.537   2.894 -0.2359  0.1713 -0.0438
    1CHOL    R215291  26.673  22.537   3.053 -0.3475 -0.2005 -0.1872
    1CHOL    R315292  26.793  22.322   3.167 -0.0898 -0.0436 -0.1557
    1CHOL    R415293  26.565  22.381   3.342 -0.1648 -0.3032 -0.1736
    1CHOL    R515294  26.774  22.361   3.402 -0.1440 -0.0431 -0.1635
    1CHOL    C115295  26.616  22.088   3.617  0.1835 -0.2155 -0.1360
    1CHOL    C215296  26.637  22.040   3.970 -0.1675  0.1137  0.0299
    1CHOL   ROH15297   0.629  17.994   2.277 -0.4511 -0.2510  0.0370
    1CHOL    R115298   0.647  18.133   2.523 -0.4061 -0.0880 -0.0550
    1CHOL    R215299   0.447  18.124   2.714 -0.3221 -0.0620  0.0420
    1CHOL    R315300   0.650  18.044   2.876 -0.2117  0.1291 -0.0009
    1CHOL    R415301   0.429  18.102   3.059 -0.2114 -0.0558  0.0476
    1CHOL    R515302   0.631  18.183   3.070 -0.2834  0.1219 -0.0073
    1CHOL    C115303   0.610  18.014   3.411 -0.0433  0.1273  0.0105
    1CHOL    C215304   0.671  17.959   3.723  0.0397  0.1554 -0.0642
    1CHOL   ROH15305   3.497  15.824   5.872  0.0717  0.1882 -0.0445
    1CHOL    R115306   3.386  15.736   5.626  0.0289  0.0167  0.0354
    1CHOL    R215307   3.377  15.896   5.401 -0.1833 -0.0740 -0.0199
    1CHOL    R315308   3.505  15.686   5.286 -0.0819 -0.0254  0.0018
    1CHOL    R415309   3.413  15.848   5.061 -0.4267 -0.2428 -0.0246
    1CHOL    R515310   3.376  15.635   5.091 -0.2040 -0.2642  0.1381
    1CHOL    C115311   3.554  15.622   4.755 -0.4732 -0.2955 -0.0069
    1CHOL    C215312   3.721  15.565   4.467 -0.0465  0.1473 -0.1645
    1CHOL   ROH15313   3.178  24.981   4.801  0.1973  0.0020  0.0235
    1CHOL    R115314   2.963  24.804   4.751  0.1263  0.1089 -0.0515
    1CHOL    R215315   2.921  24.686   4.505  0.1898  0.0822 -0.0485
    1CHOL    R315316   2.924  24.457   4.651 -0.0114  0.1089 -0.0001
    1CHOL    R415317   2.777  24.388   4.406  0.1152  0.1295 -0.0841
    1CHOL    R515318   2.708  24.359   4.611 -0.0327  0.2011 -0.1213
    1CHOL    C115319   2.695  23.999   4.486 -0.1171  0.1821 -0.0594
    1CHOL    C215320   2.341  23.845   4.625 -0.1238 -0.0044  0.0860
    1CHOL   ROH15321   3.546  14.132   2.581  0.0382 -0.2086 -0.1040
    1CHOL    R115322   3.594  14.246   2.836 -0.0772 -0.0509 -0.1501
    1CHOL    R215323   3.408  14.238   3.040 -0.0760 -0.1489 -0.1483
    1CHOL    R315324   3.613  14.127   3.179  0.0358  0.1104 -0.0998
    1CHOL    R415325   3.452  14.265   3.381 -0.2409 -0.1702 -0.1248
    1CHOL    R515326   3.666  14.289   3.347 -0.2595  0.1469 -0.0383
    1CHOL    C115327   3.670  14.176   3.711 -0.2319  0.0611 -0.0658
    1CHOL    C215328   3.685  14.348   4.085 -0.0507  0.0062 -0.0538
    1CHOL   ROH15329   1.991  18.293   2.161  0.1454 -0.2922 -0.0476
    1CHOL    R115330   1.885  18.237   2.418  0.0837 -0.3835 -0.0924
    1CHOL    R215331   1.964  18.018   2.567  0.3514 -0.2149  0.0170
    1CHOL    R315332   2.016  18.207   2.756 -0.0597 -0.0704 -0.0046
    1CHOL    R415333   1.993  17.956   2.906  0.4436 -0.1115  0.0290
    1CHOL    R515334   1.883  18.140   2.944  0.0495 -0.3234 -0.0106
    1CHOL    C115335   2.058  18.096   3.281  0.1114  0.0843  0.0158
    1CHOL    C215336   2.140  17.856   3.580  0.1107 -0.2307  0.2264
    1CHOL   ROH15337   1.967  20.453   2.117 -0.0128  0.0612 -0.0408
    1CHOL    R115338   1.926  20.614   2.346 -0.0035  0.0641 -0.0415
    1CHOL    R215339   1.730  20.808   2.358  0.0031  0.0696 -0.0397
    1CHOL    R315340   1.657  20.673   2.583  0.0029  0.0742 -0.0366
    1CHOL    R415341   1.638  20.957   2.656 -0.3620  0.0852 -0.1552
    1CHOL    R515342   1.750  20.803   2.762 -0.2582  0.2486 -0.0216
    1CHOL    C115343   1.516  20.917   3.041 -0.5748  0.0983 -0.2195
    1CHOL    C215344   1.650  20.851   3.398  0.2002 -0.1017  0.0555
    1CHOL   ROH15345  30.059  26.165   6.040 -0.0763  0.0399 -0.0559
    1CHOL    R115346  30.335  26.118   5.999 -0.1116 -0.0856 -0.1621
    1CHOL    R215347   0.089  26.084   5.748 -0.1931  0.0660 -0.2218
    1CHOL    R315348   0.253  26.286   5.827 -0.0584 -0.0938 -0.0849
    1CHOL    R415349   0.401  26.148   5.614 -0.2245  0.0577 -0.2992
    1CHOL    R515350   0.473  26.191   5.816 -0.1082 -0.1879 -0.2861
    1CHOL    C115351   0.737  26.375   5.610 -0.1164 -0.0970 -0.2157
    1CHOL    C215352   1.011  26.482   5.303  0.0596 -0.0963 -0.1761
    1CHOL   ROH15353  14.228  25.420   3.517 -0.0027  0.0935  0.1753
    1CHOL    R115354  14.022  25.348   3.697 -0.1031 -0.0451  0.0091
    1CHOL    R215355  14.063  25.178   3.910 -0.2058 -0.1588 -0.0594
    1CHOL    R315356  13.958  25.384   4.054 -0.3295 -0.2569 -0.0076
    1CHOL    R415357  14.109  25.226   4.249  0.0007 -0.0612 -0.0999
    1CHOL    R515358  13.900  25.286   4.264 -0.0580 -0.2955  0.0520
    1CHOL    C115359  14.038  25.447   4.581  0.0045 -0.0964 -0.0750
    1CHOL    C215360  13.848  25.052   4.734 -0.1307  0.0966 -0.1269
    1CHOL   ROH15361   5.681  18.022   2.432 -0.2008 -0.2206 -0.0369
    1CHOL    R115362   5.550  18.027   2.683 -0.0334 -0.1956  0.0510
    1CHOL    R215363   5.686  18.004   2.923  0.1556  0.0832 -0.0276
    1CHOL    R315364   5.557  18.236   2.981 -0.0309 -0.0052 -0.0798
    1CHOL    R415365   5.640  18.131   3.241 -0.1087  0.0205 -0.0383
    1CHOL    R515366   5.439  18.189   3.184 -0.1184 -0.1052 -0.1499
    1CHOL    C115367   5.492  18.422   3.481 -0.4376 -0.0986 -0.0935
    1CHOL    C215368   5.672  18.805   3.588 -0.1285  0.3190 -0.0356
    1CHOL   ROH15369   1.071  10.852   3.283 -0.0471  0.0693  0.1033
    1CHOL    R115370   1.177  10.896   3.542 -0.0564  0.0448  0.1115
    1CHOL    R215371   1.083  11.093   3.711 -0.0513  0.0405  0.1209
    1CHOL    R315372   1.054  10.885   3.884 -0.0737  0.0302  0.1045
    1CHOL    R415373   1.012  11.125   4.048 -0.0083  0.0222  0.1315
    1CHOL    R515374   1.153  10.963   4.087 -0.0365 -0.0092  0.1010
    1CHOL    C115375   0.943  10.948   4.406 -0.0044  0.0019  0.1224
    1CHOL    C215376   0.764  10.800   4.679 -0.1708  0.1173 -0.0524
    1CHOL   ROH15377  29.760  25.382   3.324 -0.2758  0.1975  0.0527
    1CHOL    R115378  29.879  25.343   3.578 -0.0834  0.0459 -0.0583
    1CHOL    R215379  29.789  25.470   3.806  0.2578  0.1218  0.0404
    1CHOL    R315380  29.774  25.216   3.902  0.0762  0.1247  0.0254
    1CHOL    R415381  29.701  25.387   4.130  0.2318  0.1663  0.0451
    1CHOL    R515382  29.856  25.233   4.127  0.1161  0.0481  0.0171
    1CHOL    C115383  29.636  25.100   4.409  0.0463  0.1953  0.0338
    1CHOL    C215384  29.406  25.043   4.599  0.1642 -0.0558  0.1637
    1CHOL   ROH15385   4.822  17.109   5.946 -0.0433  0.0072  0.0902
    1CHOL    R115386   4.896  17.178   5.682 -0.2102 -0.0100  0.0384
    1CHOL    R215387   5.076  17.029   5.534  0.0217  0.2155  0.0930
    1CHOL    R315388   4.874  17.024   5.352 -0.0078 -0.2348  0.1256
    1CHOL    R415389   5.114  16.959   5.198  0.1522  0.3982  0.0676
    1CHOL    R515390   4.970  17.116   5.153 -0.2563  0.0669  0.1336
    1CHOL    C115391   4.947  16.913   4.832  0.2004  0.0817  0.0834
    1CHOL    C215392   4.945  16.518   4.720  0.2469  0.1433  0.1707
    1CHOL   ROH15393   5.535  21.681   5.507 -0.1777  0.0691  0.1459
    1CHOL    R115394   5.541  21.852   5.282 -0.2136  0.0115  0.1019
    1CHOL    R215395   5.613  21.764   5.030 -0.0945 -0.0146  0.1487
    1CHOL    R315396   5.373  21.869   4.959 -0.1348 -0.1690  0.0489
    1CHOL    R415397   5.512  21.823   4.705  0.1204  0.1723  0.1132
    1CHOL    R515398   5.423  22.010   4.772 -0.1038  0.0399  0.2081
    1CHOL    C115399   5.228  21.957   4.449  0.2078  0.1361 -0.0011
    1CHOL    C215400   5.092  22.107   4.145 -0.1010 -0.0060 -0.1123
    1CHOL   ROH15401   0.705   2.870   3.801  0.0875 -0.1793 -0.0089
    1CHOL    R115402   0.803   3.024   4.018  0.1055 -0.0745 -0.0903
    1CHOL    R215403   0.800   2.933   4.279 -0.0510  0.1265 -0.0168
    1CHOL    R315404   1.065   2.991   4.268 -0.0085 -0.0537  0.0308
    1CHOL    R415405   1.001   2.990   4.554 -0.0671  0.0549  0.0103
    1CHOL    R515406   1.098   3.150   4.443  0.0641 -0.0380 -0.0016
    1CHOL    C115407   1.367   3.078   4.704 -0.0366 -0.1560  0.0707
    1CHOL    C215408   1.495   3.348   4.894 -0.0035 -0.2956 -0.0072
    1CHOL   ROH15409   4.036  25.611   3.673  0.0028 -0.0490  0.1205
    1CHOL    R115410   4.094  25.510   3.931  0.0879 -0.1709  0.0533
    1CHOL    R215411   3.907  25.373   4.082  0.0843 -0.0856  0.1189
    1CHOL    R315412   4.101  25.183   4.090 -0.0431 -0.2283 -0.0532
    1CHOL    R415413   3.916  25.109   4.306  0.2774  0.1292  0.3716
    1CHOL    R515414   4.131  25.139   4.324  0.3468 -0.0153 -0.0516
    1CHOL    C115415   4.104  24.778   4.444  0.2702  0.1200  0.3573
    1CHOL    C215416   3.884  24.684   4.823  0.2547  0.1179  0.0980
    1CHOL   ROH15417  12.482  29.116   6.143 -0.3186  0.0910  0.0341
    1CHOL    R115418  12.514  29.189   5.872 -0.1256  0.2754  0.1046
    1CHOL    R215419  12.338  29.110   5.674  0.2878 -0.0300 -0.1555
    1CHOL    R315420  12.325  29.377   5.624 -0.2242 -0.0232 -0.0541
    1CHOL    R415421  12.256  29.249   5.369  0.5635 -0.1005 -0.2643
    1CHOL    R515422  12.412  29.399   5.401  0.1743  0.2566  0.1120
    1CHOL    C115423  12.197  29.581   5.143  0.2433 -0.1351 -0.2327
    1CHOL    C215424  12.246  29.692   4.856  0.2042  0.1761  0.2590
    1CHOL   ROH15425   2.978  17.533   5.860 -0.1504  0.0209  0.0712
    1CHOL    R115426   2.986  17.324   5.670  0.0688  0.1370 -0.0508
    1CHOL    R215427   2.757  17.209   5.564  0.1821 -0.1756  0.0383
    1CHOL    R315428   2.874  17.273   5.327 -0.0724  0.1483 -0.0076
    1CHOL    R415429   2.624  17.140   5.253  0.1271 -0.3069  0.0898
    1CHOL    R515430   2.824  17.088   5.184  0.1973  0.1018 -0.0500
    1CHOL    C115431   2.656  17.159   4.849 -0.1439 -0.0791  0.0768
    1CHOL    C215432   2.598  17.116   4.461 -0.1899 -0.1120  0.1553
    1CHOL   ROH15433   1.984  24.861   4.625  0.0628 -0.2336  0.2315
    1CHOL    R115434   1.972  25.022   4.857  0.0151 -0.1346  0.1602
    1CHOL    R215435   2.144  24.990   5.071 -0.0364 -0.0502  0.2119
    1CHOL    R315436   2.194  25.254   5.029 -0.0175 -0.0677  0.1148
    1CHOL    R415437   2.192  25.223   5.321 -0.0690  0.0442  0.1312
    1CHOL    R515438   2.074  25.365   5.205 -0.0448  0.0056  0.0532
    1CHOL    C115439   2.266  25.607   5.428 -0.0704  0.0827 -0.0070
    1CHOL    C215440   2.527  25.498   5.653 -0.0386  0.0726  0.0661
    1CHOL   ROH15441  14.287  12.884   6.554  0.0590  0.0926 -0.1090
    1CHOL    R115442  14.271  12.865   6.272  0.0141  0.1041 -0.1078
    1CHOL    R215443  14.451  12.718   6.122 -0.0470  0.0543 -0.1384
    1CHOL    R315444  14.226  12.599   6.027 -0.0961  0.1221 -0.1059
    1CHOL    R415445  14.438  12.512   5.845 -0.1547  0.0555 -0.1341
    1CHOL    R515446  14.250  12.608   5.789 -0.1307  0.1107 -0.1073
    1CHOL    C115447  14.218  12.282   5.594 -0.2635  0.1197 -0.1011
    1CHOL    C215448  14.041  12.037   5.319  0.3350 -0.2254 -0.3175
    1CHOL   ROH15449   1.872  10.396   3.185 -0.0329 -0.3763 -0.0131
    1CHOL    R115450   1.936  10.295   3.442 -0.1578 -0.2163  0.0819
    1CHOL    R215451   2.036  10.453   3.644 -0.0173 -0.1404 -0.0550
    1CHOL    R315452   1.826  10.353   3.784 -0.1290  0.1922  0.0291
    1CHOL    R415453   2.015  10.446   3.989  0.2338 -0.3103 -0.0400
    1CHOL    R515454   1.928  10.246   3.974 -0.1878 -0.1390 -0.1104
    1CHOL    C115455   1.806  10.347   4.321  0.2750 -0.0969  0.0479
    1CHOL    C215456   1.485  10.293   4.442  0.1081 -0.1766 -0.2180
    1CHOL   ROH15457  30.213  12.333   2.670  0.2399  0.0353 -0.0505
    1CHOL    R115458  30.170  12.393   2.943  0.1758  0.1350 -0.0814
    1CHOL    R215459  30.264  12.234   3.147 -0.1098  0.0562 -0.0017
    1CHOL    R315460   0.021  12.466   3.234  0.1222 -0.0569  0.0046
    1CHOL    R415461  30.307  12.320   3.479 -0.3602  0.1636  0.0047
    1CHOL    R515462  30.249  12.524   3.429 -0.0159  0.2226 -0.1665
    1CHOL    C115463   0.083  12.588   3.754 -0.2882  0.1202  0.0142
    1CHOL    C215464   0.107  12.504   4.225 -0.0138  0.0268 -0.1085
    1CHOL   ROH15465  20.015   0.294   6.335  0.0815  0.1020  0.0597
    1CHOL    R115466  20.051   0.287   6.054  0.0333  0.1283  0.0526
    1CHOL    R215467  20.272   0.398   5.929  0.1002 -0.0157  0.0405
    1CHOL    R315468  20.296   0.149   5.822 -0.1062 -0.0147 -0.0111
    1CHOL    R415469  20.454   0.320   5.646 -0.0546 -0.0905 -0.0395
    1CHOL    R515470  20.294   0.185   5.586 -0.1685  0.0263 -0.0049
    1CHOL    C115471  20.582   0.041   5.380 -0.3385 -0.1331 -0.1344
    1CHOL    C215472  20.536  30.157   5.045  0.1778 -0.0392 -0.1729
    1CHOL   ROH15473   5.737  22.679   5.857  0.0237  0.1438 -0.0929
    1CHOL    R115474   5.866  22.843   5.665  0.1603 -0.0691 -0.1861
    1CHOL    R215475   6.034  22.741   5.470 -0.1835 -0.3591 -0.3357
    1CHOL    R315476   5.867  22.874   5.303 -0.0872 -0.0421 -0.1873
    1CHOL    R415477   6.109  22.834   5.146 -0.0976 -0.0228 -0.2239
    1CHOL    R515478   6.009  23.023   5.182  0.0264  0.0109 -0.0012
    1CHOL    C115479   5.997  23.013   4.801  0.0427  0.4705 -0.0197
    1CHOL    C215480   5.860  23.026   4.370 -0.1465 -0.0591  0.1352
    1CHOL   ROH15481   2.873  26.099   4.738  0.2501 -0.0116  0.2002
    1CHOL    R115482   3.048  25.882   4.786  0.0417 -0.1986  0.1432
    1CHOL    R215483   2.968  25.619   4.766 -0.1596 -0.1281 -0.1505
    1CHOL    R315484   3.178  25.601   4.594 -0.0476 -0.1338 -0.0110
    1CHOL    R415485   3.216  25.379   4.782 -0.0295  0.0237  0.1590
    1CHOL    R515486   3.362  25.533   4.732 -0.0907  0.0652  0.1397
    1CHOL    C115487   3.559  25.223   4.630  0.1513  0.1067  0.4704
    1CHOL    C215488   3.533  24.852   4.441 -0.1565  0.1709  0.0615
    1CHOL   ROH15489   2.472  22.146   2.508 -0.0496 -0.2720  0.1846
    1CHOL    R115490   2.531  22.047   2.767 -0.0412 -0.1943  0.2120
    1CHOL    R215491   2.571  22.214   2.983 -0.0080 -0.1307  0.1519
    1CHOL    R315492   2.377  22.061   3.096 -0.0134 -0.0731  0.2224
    1CHOL    R415493   2.550  22.140   3.320  0.1197 -0.1392  0.1587
    1CHOL    R515494   2.491  21.936   3.266  0.0263 -0.1223  0.1670
    1CHOL    C115495   2.355  21.953   3.622  0.1890 -0.0901  0.2287
    1CHOL    C215496   2.150  21.991   3.938 -0.2782 -0.3093  0.0426
    1CHOL   ROH15497   2.833  17.868   2.144  0.2422  0.1183 -0.1793
    1CHOL    R115498   2.901  17.789   2.407  0.0679  0.0735 -0.1478
    1CHOL    R215499   3.103  17.911   2.551 -0.0856  0.1031  0.0350
    1CHOL    R315500   2.907  17.945   2.736 -0.2349 -0.0127 -0.0974
    1CHOL    R415501   3.157  17.993   2.882 -0.3480  0.0744  0.0881
    1CHOL    R515502   2.999  17.853   2.937 -0.3308 -0.0080 -0.0457
    1CHOL    C115503   3.004  18.072   3.249 -0.6410 -0.0510 -0.0053
    1CHOL    C215504   3.092  18.254   3.722 -0.1348 -0.1933  0.0119
    1CHOL   ROH15505   7.817  14.145   2.723  0.1665 -0.0028 -0.0857
    1CHOL    R115506   7.610  14.159   2.916  0.1299 -0.0639 -0.1192
    1CHOL    R215507   7.630  14.040   3.165  0.0980 -0.1129 -0.1360
    1CHOL    R315508   7.571  14.290   3.253  0.0579 -0.1359 -0.1000
    1CHOL    R415509   7.538  14.119   3.488 -0.1153 -0.2001 -0.1747
    1CHOL    R515510   7.391  14.258   3.407 -0.0481 -0.1663 -0.2315
    1CHOL    C115511   7.429  14.400   3.760 -0.2771 -0.2724 -0.1634
    1CHOL    C215512   7.439  14.725   4.050  0.1622 -0.1032 -0.1763
    1CHOL   ROH15513  27.603  24.932   5.745 -0.0783  0.2200  0.0423
    1CHOL    R115514  27.713  24.902   5.486 -0.1000  0.1863  0.0364
    1CHOL    R215515  27.792  24.656   5.386  0.0785  0.1970  0.1355
    1CHOL    R315516  27.625  24.722   5.182 -0.0158 -0.0276  0.1381
    1CHOL    R415517  27.803  24.519   5.069  0.1419  0.1001  0.1795
    1CHOL    R515518  27.764  24.717   4.987 -0.0505  0.0313  0.1167
    1CHOL    C115519  27.653  24.501   4.693  0.0903 -0.1672  0.2075
    1CHOL    C215520  27.650  24.407   4.281 -0.4100  0.1082 -0.0336
    1CHOL   ROH15521  26.177  17.196   5.862 -0.1427 -0.1815 -0.0747
    1CHOL    R115522  26.305  17.096   5.629  0.0429 -0.0585 -0.0282
    1CHOL    R215523  26.182  16.919   5.457  0.2858 -0.1952 -0.0663
    1CHOL    R315524  26.245  17.106   5.271  0.1558 -0.1334 -0.0494
    1CHOL    R415525  26.227  16.856   5.120 -0.0937 -0.0585 -0.1473
    1CHOL    R515526  26.395  16.994   5.121 -0.0412 -0.1206 -0.2618
    1CHOL    C115527  26.312  16.995   4.749 -0.4368  0.0788 -0.1787
    1CHOL    C215528  26.556  17.001   4.451  0.3665 -0.1712 -0.1153
    1CHOL   ROH15529   1.967  19.675   2.444 -0.0721 -0.1255  0.0604
    1CHOL    R115530   1.869  19.703   2.708 -0.0448 -0.3117  0.0919
    1CHOL    R215531   1.915  19.516   2.906  0.3703 -0.2330  0.0762
    1CHOL    R315532   2.011  19.731   3.042  0.0157 -0.0487  0.0470
    1CHOL    R415533   1.872  19.571   3.244  0.2698 -0.2505  0.0669
    1CHOL    R515534   1.840  19.782   3.201 -0.0772 -0.3049  0.0339
    1CHOL    C115535   1.937  19.804   3.569 -0.1216 -0.0875  0.0341
    1CHOL    C215536   1.662  19.865   3.875 -0.2388  0.0600  0.2839
    1CHOL   ROH15537  24.787  27.372   6.070 -0.0664  0.2472  0.0716
    1CHOL    R115538  24.899  27.306   5.818 -0.0456  0.0508  0.1285
    1CHOL    R215539  24.806  27.414   5.582 -0.0124 -0.1115  0.0318
    1CHOL    R315540  25.067  27.485   5.549 -0.0030 -0.1589  0.0164
    1CHOL    R415541  24.950  27.505   5.281 -0.0068 -0.1262  0.0315
    1CHOL    R515542  25.127  27.392   5.336 -0.0292 -0.1574  0.0140
    1CHOL    C115543  25.278  27.625   5.074  0.0054 -0.1791  0.0169
    1CHOL    C215544  25.524  27.683   4.763 -0.1899 -0.4433  0.0750
    1CHOL   ROH15545  30.062  22.026   6.175  0.0382 -0.0564 -0.1689
    1CHOL    R115546  30.064  22.227   5.975  0.0566 -0.0627 -0.1760
    1CHOL    R215547  30.179  22.188   5.727  0.0421 -0.0861 -0.1833
    1CHOL    R315548  29.934  22.265   5.638  0.0471 -0.0587 -0.1706
    1CHOL    R415549  30.120  22.359   5.432  0.0556  0.0607 -0.1009
    1CHOL    R515550  29.971  22.479   5.537  0.0379 -0.0060 -0.0571
    1CHOL    C115551  29.856  22.531   5.177  0.0680  0.1722 -0.0411
    1CHOL    C215552  29.763  22.691   4.843  0.0874 -0.1807 -0.1047
    1CHOL   ROH15553  10.848   6.109   5.975 -0.0310 -0.0764  0.1835
    1CHOL    R115554  10.901   6.003   5.718  0.0935  0.0376  0.1610
    1CHOL    R215555  10.700   5.932   5.542  0.1712 -0.2398  0.1787
    1CHOL    R315556  10.832   6.099   5.373 -0.0989 -0.0122  0.1847
    1CHOL    R415557  10.686   5.915   5.197  0.2316 -0.2725  0.1777
    1CHOL    R515558  10.900   5.958   5.192  0.1625  0.0973  0.1945
    1CHOL    C115559  10.802   6.062   4.838  0.0134 -0.0779  0.1828
    1CHOL    C215560  10.800   6.342   4.594 -0.0469  0.1012 -0.1672
    1CHOL   ROH15561   7.885  17.865   5.526  0.0122 -0.0037 -0.0825
    1CHOL    R115562   7.919  17.743   5.273  0.0241  0.0512 -0.1074
    1CHOL    R215563   7.728  17.758   5.074 -0.0240 -0.0182 -0.0660
    1CHOL    R315564   7.935  17.853   4.926 -0.1032  0.1109 -0.0952
    1CHOL    R415565   7.715  17.823   4.734 -0.0645 -0.1952 -0.0995
    1CHOL    R515566   7.916  17.740   4.716  0.0201 -0.0124 -0.0425
    1CHOL    C115567   7.903  17.951   4.399 -0.1624 -0.1770 -0.1465
    1CHOL    C215568   7.802  17.931   4.059 -0.0309  0.0241  0.0207
    1CHOL   ROH15569  27.192   4.122   4.386  0.0221  0.1991  0.0769
    1CHOL    R115570  27.243   4.048   4.655  0.0331  0.0753  0.0415
    1CHOL    R215571  27.157   4.199   4.869  0.1026  0.0129  0.1126
    1CHOL    R315572  27.045   3.965   4.949  0.0446  0.0132  0.0324
    1CHOL    R415573  27.038   4.135   5.188  0.2198 -0.1105  0.1320
    1CHOL    R515574  27.123   3.934   5.173  0.1352 -0.1393 -0.0166
    1CHOL    C115575  26.864   3.877   5.447  0.2337 -0.1821  0.0680
    1CHOL    C215576  26.861   3.831   5.748 -0.0443 -0.1856 -0.0602
    1CHOL   ROH15577  28.571  20.044   5.686  0.0388 -0.0496 -0.0748
    1CHOL    R115578  28.579  20.028   5.404 -0.0055 -0.0456 -0.0764
    1CHOL    R215579  28.351  20.018   5.248 -0.0286 -0.0523 -0.0397
    1CHOL    R315580  28.466  20.231   5.124 -0.0575 -0.0474 -0.0575
    1CHOL    R415581  28.320  20.090   4.912 -0.0657 -0.0748 -0.0410
    1CHOL    R515582  28.531  20.146   4.909 -0.0680 -0.0553 -0.0600
    1CHOL    C115583  28.409  20.332   4.599 -0.1146 -0.0834 -0.0584
    1CHOL    C215584  28.319  20.187   4.260 -0.2229 -0.1486 -0.2880
    1CHOL   ROH15585  21.365  17.942   2.729 -0.1225  0.3225  0.0506
    1CHOL    R115586  21.377  18.068   2.982 -0.0717  0.2032  0.1079
    1CHOL    R215587  21.317  17.935   3.217 -0.0203  0.0914  0.0580
    1CHOL    R315588  21.563  18.022   3.292 -0.0059  0.0603  0.0483
    1CHOL    R415589  21.416  17.987   3.543 -0.0071  0.0947  0.0535
    1CHOL    R515590  21.521  18.167   3.477  0.0175  0.0768  0.0415
    1CHOL    C115591  21.706  18.100   3.804  0.0137  0.0675  0.0418
    1CHOL    C215592  21.875  18.120   4.185 -0.2382  0.0075  0.1598
    1CHOL   ROH15593   1.090  12.236   6.013  0.0059  0.0545  0.0363
    1CHOL    R115594   1.165  12.078   5.790  0.3219  0.2194  0.0209
    1CHOL    R215595   0.981  11.973   5.612  0.4782 -0.4285  0.2090
    1CHOL    R315596   1.136  12.101   5.428 -0.0709  0.0303  0.0367
    1CHOL    R415597   1.045  11.858   5.292  0.5125 -0.2690  0.1580
    1CHOL    R515598   1.251  11.925   5.314  0.3530  0.3536 -0.0556
    1CHOL    C115599   1.227  11.911   4.934  0.0170  0.2546 -0.0334
    1CHOL    C215600   1.282  11.601   4.805  0.4054  0.1202  0.1691
    1CHOL   ROH15601   2.820  10.542   3.049 -0.0666  0.1857  0.0791
    1CHOL    R115602   2.925  10.401   3.270 -0.0041  0.2133  0.0655
    1CHOL    R215603   3.096  10.518   3.453 -0.1181  0.2930  0.1115
    1CHOL    R315604   2.912  10.431   3.633 -0.0804  0.1249  0.0725
    1CHOL    R415605   3.168  10.427   3.778 -0.0854  0.3251  0.1142
    1CHOL    R515606   3.028  10.261   3.757  0.0487  0.2043  0.0740
    1CHOL    C115607   3.038  10.292   4.137 -0.0309  0.1859  0.0792
    1CHOL    C215608   3.312  10.252   4.394 -0.0827 -0.0286 -0.2240
    1CHOL   ROH15609  15.635   3.100   3.384  0.2356  0.0950  0.1016
    1CHOL    R115610  15.537   3.079   3.649  0.1988 -0.0095  0.0805
    1CHOL    R215611  15.675   2.945   3.847  0.2491  0.0476  0.0854
    1CHOL    R315612  15.649   3.180   3.980  0.0714  0.0111  0.1173
    1CHOL    R415613  15.827   3.019   4.148  0.1875  0.1199  0.0989
    1CHOL    R515614  15.643   3.117   4.211  0.1125 -0.0248  0.1083
    1CHOL    C115615  15.892   3.284   4.448 -0.0151  0.1277  0.1367
    1CHOL    C215616  15.978   3.204   4.828 -0.1984 -0.1937 -0.0399
    1CHOL   ROH15617  19.958  27.079   3.729  0.1413 -0.1476  0.0140
    1CHOL    R115618  20.009  27.230   3.963 -0.1162 -0.1304  0.0623
    1CHOL    R215619  20.237  27.384   3.995 -0.0539 -0.2783  0.3756
    1CHOL    R315620  20.057  27.580   4.047 -0.0061 -0.1427  0.0533
    1CHOL    R415621  20.299  27.662   4.190 -0.1310 -0.2188  0.3157
    1CHOL    R515622  20.100  27.642   4.274 -0.2527 -0.0566  0.0798
    1CHOL    C115623  20.167  28.009   4.353 -0.1311 -0.0566 -0.0217
    1CHOL    C215624  20.207  28.140   4.706 -0.0548  0.1653 -0.0093
    1CHOL   ROH15625   2.573  21.699   2.424 -0.1892 -0.0017 -0.0154
    1CHOL    R115626   2.511  21.539   2.648 -0.0980 -0.0509 -0.0249
    1CHOL    R215627   2.671  21.529   2.873  0.0256 -0.1444 -0.1129
    1CHOL    R315628   2.440  21.594   3.001  0.1062 -0.1311  0.0289
    1CHOL    R415629   2.620  21.502   3.214  0.2723  0.0083 -0.0609
    1CHOL    R515630   2.419  21.428   3.173  0.2595 -0.0503  0.1233
    1CHOL    C115631   2.374  21.547   3.532  0.4916  0.1099  0.1026
    1CHOL    C215632   2.555  21.591   3.856  0.2384 -0.0692  0.3277
    1CHOL   ROH15633  28.826  10.014   6.285 -0.0515  0.0571 -0.0770
    1CHOL    R115634  28.892  10.125   6.033  0.2059 -0.0357 -0.0545
    1CHOL    R215635  29.125  10.062   5.898  0.1810 -0.3598  0.0404
    1CHOL    R315636  28.953  10.001   5.697  0.1733 -0.1306 -0.0248
    1CHOL    R415637  29.216  10.012   5.569  0.2002 -0.2453  0.0284
    1CHOL    R515638  29.038  10.121   5.508  0.2883 -0.0880  0.0550
    1CHOL    C115639  29.108   9.925   5.188  0.2042  0.0366 -0.0398
    1CHOL    C215640  28.960  10.087   4.852  0.2154 -0.1970  0.1426
    1CHOL   ROH15641  26.468  17.714   2.422 -0.1249 -0.0052 -0.0755
    1CHOL    R115642  26.441  17.824   2.681 -0.1315  0.0614 -0.1074
    1CHOL    R215643  26.203  17.817   2.822 -0.0806 -0.0505 -0.0546
    1CHOL    R315644  26.358  17.700   3.013  0.0360  0.1222 -0.0370
    1CHOL    R415645  26.148  17.839   3.163 -0.3644 -0.3678 -0.0722
    1CHOL    R515646  26.363  17.860   3.192 -0.3991  0.0400  0.0750
    1CHOL    C115647  26.261  17.743   3.540 -0.4204 -0.3907 -0.0658
    1CHOL    C215648  26.147  17.880   3.868  0.1121  0.0683  0.3430
    1CHOL   ROH15649   2.917   6.444   4.948 -0.1248  0.0123 -0.0197
    1CHOL    R115650   3.109   6.520   4.754 -0.0080 -0.0969  0.0519
    1CHOL    R215651   3.090   6.755   4.610  0.0282 -0.2194 -0.1553
    1CHOL    R315652   3.342   6.795   4.705 -0.0477 -0.0735 -0.0103
    1CHOL    R415653   3.287   7.031   4.541 -0.0521 -0.1563 -0.1329
    1CHOL    R515654   3.459   6.898   4.524  0.0199 -0.0879  0.0233
    1CHOL    C115655   3.637   7.229   4.590 -0.1702  0.0175  0.0163
    1CHOL    C215656   3.523   7.635   4.676  0.3001  0.6133 -0.0252
    1CHOL   ROH15657   1.355  12.912   5.992  0.3050  0.1406  0.0660
    1CHOL    R115658   1.412  12.772   5.753  0.1928  0.0148  0.1130
    1CHOL    R215659   1.226  12.611   5.627  0.1018  0.0347  0.2298
    1CHOL    R315660   1.283  12.767   5.412  0.1111 -0.0846  0.1434
    1CHOL    R415661   1.192  12.513   5.297 -0.1379 -0.0692  0.2822
    1CHOL    R515662   1.379  12.616   5.253 -0.0782 -0.2207  0.1499
    1CHOL    C115663   1.227  12.603   4.904 -0.2688 -0.2418  0.2317
    1CHOL    C215664   1.321  12.325   4.634 -0.2226 -0.0915  0.1135
    1CHOL   ROH15665  28.815   8.515   3.457 -0.0445 -0.0565  0.2061
    1CHOL    R115666  28.706   8.419   3.700 -0.0833  0.0217  0.2189
    1CHOL    R215667  28.824   8.217   3.847 -0.1973 -0.0437  0.2145
    1CHOL    R315668  28.811   8.400   4.048 -0.0671 -0.0303  0.2123
    1CHOL    R415669  28.876   8.147   4.181 -0.1932 -0.0720  0.2085
    1CHOL    R515670  28.711   8.281   4.230 -0.1138  0.0261  0.2277
    1CHOL    C115671  28.895   8.277   4.564 -0.0685 -0.0759  0.2031
    1CHOL    C215672  29.071   7.971   4.736 -0.1413  0.1618  0.2785
    1CHOL   ROH15673   8.141   8.777   6.017  0.0915  0.0072 -0.0248
    1CHOL    R115674   8.019   8.760   5.762 -0.0397  0.0219  0.0359
    1CHOL    R215675   8.025   8.968   5.580  0.0004 -0.0224 -0.0159
    1CHOL    R315676   8.128   8.777   5.416 -0.1911 -0.1239 -0.0196
    1CHOL    R415677   8.078   9.006   5.241 -0.0703 -0.1151 -0.0377
    1CHOL    R515678   8.006   8.803   5.211 -0.2314 -0.0649  0.0133
    1CHOL    C115679   8.205   8.850   4.889 -0.2915 -0.2646 -0.0539
    1CHOL    C215680   8.372   9.060   4.704 -0.1989 -0.1691 -0.0890
    1CHOL   ROH15681   1.409  19.712   5.532 -0.0987 -0.0397 -0.0134
    1CHOL    R115682   1.344  19.781   5.265  0.1482  0.0735 -0.0453
    1CHOL    R215683   1.522  19.747   5.056  0.1817 -0.2680  0.0404
    1CHOL    R315684   1.316  19.607   4.947 -0.0394  0.1120 -0.0525
    1CHOL    R415685   1.469  19.705   4.717  0.3866 -0.3298  0.0137
    1CHOL    R515686   1.255  19.732   4.752  0.3971  0.1533 -0.1773
    1CHOL    C115687   1.245  19.550   4.417  0.2983 -0.0089 -0.0891
    1CHOL    C215688   1.278  19.597   4.061  0.2511 -0.0795  0.0826
    1CHOL   ROH15689  25.846   8.935   3.252  0.0558  0.3178 -0.1826
    1CHOL    R115690  25.900   9.118   3.461  0.1284  0.1885 -0.0858
    1CHOL    R215691  25.797   9.088   3.715 -0.0007  0.1711 -0.1376
    1CHOL    R315692  26.058   9.107   3.789 -0.0115 -0.0812 -0.0255
    1CHOL    R415693  25.907   9.180   4.029 -0.0461  0.4138 -0.1910
    1CHOL    R515694  26.065   9.297   3.934  0.1592  0.0924 -0.2553
    1CHOL    C115695  26.216   9.252   4.281 -0.0826  0.3181 -0.1169
    1CHOL    C215696  26.288   9.569   4.434  0.2257 -0.0661 -0.0348
    1CHOL   ROH15697   0.003  16.394   2.809 -0.0516  0.0417  0.0033
    1CHOL    R115698   0.139  16.337   3.051  0.0372 -0.0273 -0.0623
    1CHOL    R215699   0.154  16.519   3.258  0.1255 -0.0819 -0.0231
    1CHOL    R315700   0.051  16.313   3.403  0.1704 -0.1126 -0.0341
    1CHOL    R415701   0.139  16.509   3.603  0.0028 -0.0401 -0.0266
    1CHOL    R515702   0.194  16.298   3.595  0.1085 -0.0167  0.0219
    1CHOL    C115703   0.033  16.309   3.940 -0.0265 -0.0451 -0.0391
    1CHOL    C215704   0.342  16.106   4.224  0.0085 -0.1422  0.3303
    1CHOL   ROH15705   5.674  19.584   5.176 -0.0567  0.0949  0.0594
    1CHOL    R115706   5.650  19.658   4.903 -0.1888  0.2030  0.0989
    1CHOL    R215707   5.778  19.521   4.700 -0.0414  0.4627  0.0087
    1CHOL    R315708   5.527  19.504   4.597 -0.0395  0.1970  0.0416
    1CHOL    R415709   5.704  19.488   4.364 -0.0548  0.3251  0.0248
    1CHOL    R515710   5.538  19.627   4.392 -0.1872  0.1684  0.0170
    1CHOL    C115711   5.425  19.454   4.072 -0.0608 -0.0045  0.0651
    1CHOL    C215712   5.395  19.362   3.703  0.2249  0.0557  0.0915
    1CHOL   ROH15713  27.122  12.088   6.007 -0.0292 -0.3462 -0.0030
    1CHOL    R115714  27.310  12.188   5.821 -0.1569  0.0002  0.0473
    1CHOL    R215715  27.426  12.029   5.626  0.2242  0.1924  0.1081
    1CHOL    R315716  27.332  12.222   5.460 -0.1033 -0.0094  0.0497
    1CHOL    R415717  27.501  12.055   5.290 -0.0459  0.0683  0.0350
    1CHOL    R515718  27.515  12.271   5.314 -0.2587  0.1003 -0.1121
    1CHOL    C115719  27.456  12.251   4.938 -0.5104 -0.1932 -0.0623
    1CHOL    C215720  27.503  12.423   4.514  0.0426  0.0420  0.0969
    1CHOL   ROH15721  25.545  20.924   5.455 -0.1668 -0.1973 -0.0371
    1CHOL    R115722  25.547  20.835   5.186 -0.0302 -0.1718 -0.0453
    1CHOL    R215723  25.526  21.008   4.972 -0.2157 -0.1743 -0.0302
    1CHOL    R315724  25.755  20.885   4.892 -0.0559  0.1069 -0.0187
    1CHOL    R415725  25.655  21.021   4.651 -0.4802 -0.4066 -0.1510
    1CHOL    R515726  25.707  20.809   4.669 -0.0981 -0.3002  0.1199
    1CHOL    C115727  25.945  20.913   4.390 -0.4844 -0.2778 -0.2105
    1CHOL    C215728  25.903  20.744   4.023 -0.0551 -0.1353  0.0482
    1CHOL   ROH15729   7.550  28.375   6.393 -0.1169 -0.1569 -0.0620
    1CHOL    R115730   7.558  28.242   6.143 -0.0832  0.1049 -0.2030
    1CHOL    R215731   7.687  28.349   5.923  0.3158  0.1485  0.0416
    1CHOL    R315732   7.816  28.109   5.923 -0.0715 -0.0694 -0.0862
    1CHOL    R415733   7.843  28.209   5.648  0.4840  0.2706  0.0734
    1CHOL    R515734   7.765  28.014   5.709  0.0736  0.3032 -0.2964
    1CHOL    C115735   8.055  27.903   5.488  0.2183  0.1369 -0.0280
    1CHOL    C215736   8.257  27.860   5.159 -0.2581 -0.1102  0.1922
    1CHOL   ROH15737  27.847  13.337   3.001  0.0725 -0.0362  0.0369
    1CHOL    R115738  27.962  13.473   3.222  0.1151  0.0473 -0.0331
    1CHOL    R215739  27.860  13.454   3.478  0.2037  0.0837  0.0193
    1CHOL    R315740  28.115  13.381   3.539  0.2422  0.1543 -0.0672
    1CHOL    R415741  27.986  13.423   3.798  0.2916 -0.0736 -0.0311
    1CHOL    R515742  28.172  13.515   3.729  0.2284  0.0431  0.0014
    1CHOL    C115743  28.299  13.337   4.042  0.3790 -0.0988 -0.1416
    1CHOL    C215744  28.320  13.713   4.216  0.0603 -0.2393  0.2270
    1CHOL   ROH15745  23.672  18.322   2.352 -0.0467  0.0374 -0.1199
    1CHOL    R115746  23.808  18.379   2.593  0.0687  0.0409 -0.1853
    1CHOL    R215747  23.689  18.513   2.803  0.1594  0.0160 -0.1200
    1CHOL    R315748  23.768  18.296   2.946  0.2569  0.0197 -0.1670
    1CHOL    R415749  23.658  18.481   3.145  0.0727 -0.1101 -0.1388
    1CHOL    R515750  23.855  18.388   3.149  0.1357  0.0153 -0.1098
    1CHOL    C115751  23.713  18.259   3.479  0.1141 -0.1800 -0.1939
    1CHOL    C215752  23.791  18.426   3.892 -0.2157 -0.0499  0.5066
    1CHOL   ROH15753   6.962   4.372   4.044 -0.1643 -0.2188  0.0465
    1CHOL    R115754   7.177   4.226   4.156 -0.1390 -0.2176  0.0019
    1CHOL    R215755   7.213   4.200   4.429  0.0387 -0.0398  0.0014
    1CHOL    R315756   7.215   3.935   4.371 -0.1012 -0.0816  0.1807
    1CHOL    R415757   7.327   3.953   4.642 -0.0392  0.0453  0.1432
    1CHOL    R515758   7.418   3.855   4.470 -0.1224 -0.1146  0.1923
    1CHOL    C115759   7.396   3.560   4.710 -0.2159  0.0556  0.3941
    1CHOL    C215760   7.707   3.370   4.716  0.0796 -0.1594 -0.1195
    1CHOL   ROH15761  22.543  17.588   5.257 -0.3462  0.1104  0.0258
    1CHOL    R115762  22.639  17.523   4.999 -0.1424  0.2030  0.0765
    1CHOL    R215763  22.504  17.352   4.829  0.1597 -0.0056  0.0386
    1CHOL    R315764  22.523  17.561   4.656 -0.0454  0.0004  0.0199
    1CHOL    R415765  22.581  17.324   4.494  0.3905  0.0581  0.0840
    1CHOL    R515766  22.706  17.502   4.512  0.1240  0.2432  0.1295
    1CHOL    C115767  22.644  17.503   4.136  0.3323  0.1007  0.0929
    1CHOL    C215768  22.992  17.602   3.966 -0.0463 -0.4945  0.1086
    1CHOL   ROH15769  10.995  11.240   3.874  0.2961  0.1391  0.1824
    1CHOL    R115770  10.842  11.069   4.040 -0.0010  0.1859 -0.0324
    1CHOL    R215771  10.928  10.989   4.291 -0.0353 -0.4406 -0.1948
    1CHOL    R315772  10.688  11.089   4.369  0.2214 -0.0191  0.0849
    1CHOL    R415773  10.749  10.881   4.566 -0.1172 -0.4258 -0.2436
    1CHOL    R515774  10.566  10.899   4.448 -0.1535  0.1366 -0.1124
    1CHOL    C115775  10.419  10.913   4.800  0.0761 -0.0214 -0.0096
    1CHOL    C215776  10.285  10.994   5.185  0.1744 -0.2958 -0.0593
    1CHOL   ROH15777   2.785  23.712   6.450  0.1517 -0.2194  0.0724
    1CHOL    R115778   2.903  23.752   6.196  0.1343 -0.1256  0.0781
    1CHOL    R215779   2.776  23.683   5.960  0.1608 -0.1387  0.0639
    1CHOL    R315780   2.826  23.942   5.896  0.0508 -0.1054  0.1131
    1CHOL    R415781   2.799  23.806   5.638  0.0724 -0.0542  0.0901
    1CHOL    R515782   2.966  23.930   5.702  0.0294 -0.0043  0.0940
    1CHOL    C115783   2.859  24.121   5.390 -0.0823  0.0264  0.1516
    1CHOL    C215784   2.882  24.448   5.195 -0.0325  0.2920  0.0398
    1CHOL   ROH15785   3.976  17.420   5.685 -0.0113  0.0077 -0.0247
    1CHOL    R115786   3.926  17.381   5.409  0.0962 -0.0356 -0.0403
    1CHOL    R215787   3.806  17.572   5.251 -0.1454 -0.1772 -0.0482
    1CHOL    R315788   4.027  17.537   5.096 -0.0565  0.1436  0.0007
    1CHOL    R415789   3.803  17.542   4.907 -0.0992 -0.8111 -0.0039
    1CHOL    R515790   3.955  17.386   4.924  0.3331 -0.3748  0.2697
    1CHOL    C115791   4.008  17.491   4.561  0.0112 -0.8789  0.0676
    1CHOL    C215792   3.902  17.448   4.187 -0.0649  0.0038 -0.1121
    1CHOL   ROH15793  20.004  11.807   5.855  0.0867 -0.0677  0.0291
    1CHOL    R115794  20.012  11.843   5.574  0.4006 -0.1463  0.0233
    1CHOL    R215795  20.172  11.689   5.408  0.2863 -0.4777  0.1992
    1CHOL    R315796  19.938  11.642   5.280  0.3043 -0.0922  0.0135
    1CHOL    R415797  20.143  11.571   5.085  0.3191 -0.1009  0.0545
    1CHOL    R515798  19.978  11.709   5.054  0.4881  0.1041  0.1083
    1CHOL    C115799  19.906  11.458   4.776  0.3549  0.4803 -0.2040
    1CHOL    C215800  20.056  11.265   4.368 -0.0053  0.1531  0.3170
    1CHOL   ROH15801  29.133  23.645   5.204 -0.0564 -0.1706 -0.2416
    1CHOL    R115802  29.103  23.918   5.135 -0.0312 -0.1544 -0.1902
    1CHOL    R215803  28.899  24.009   4.973 -0.1006 -0.0855 -0.0670
    1CHOL    R315804  28.852  24.177   5.182  0.0536 -0.1018 -0.0178
    1CHOL    R415805  28.773  24.329   4.943 -0.1800 -0.1049  0.0554
    1CHOL    R515806  28.913  24.393   5.098 -0.0544 -0.0888 -0.0632
    1CHOL    C115807  28.655  24.673   5.122 -0.0814 -0.1317  0.1728
    1CHOL    C215808  28.727  24.918   5.182  0.1871 -0.0541 -0.0365
    1CHOL   ROH15809  25.137  19.549   2.205 -0.0985 -0.0465 -0.0544
    1CHOL    R115810  25.017  19.589   2.458 -0.0562 -0.0109 -0.0392
    1CHOL    R215811  24.755  19.516   2.512 -0.0324 -0.0520  0.0308
    1CHOL    R315812  24.870  19.379   2.716  0.0384  0.0196  0.0392
    1CHOL    R415813  24.586  19.394   2.787  0.0785  0.1093  0.1731
    1CHOL    R515814  24.754  19.455   2.911  0.1513  0.1322  0.0619
    1CHOL    C115815  24.594  19.193   3.139  0.2100  0.2702  0.2638
    1CHOL    C215816  24.591  19.340   3.487  0.0162  0.0937 -0.2282
    1CHOL   ROH15817   2.030  12.681   2.682 -0.3215 -0.1280  0.0095
    1CHOL    R115818   1.951  12.682   2.954 -0.1758 -0.0622  0.0529
    1CHOL    R215819   2.068  12.519   3.144 -0.1963 -0.1483 -0.0067
    1CHOL    R315820   2.107  12.754   3.275  0.0523 -0.1734 -0.0315
    1CHOL    R415821   2.221  12.550   3.452 -0.3064 -0.2973  0.0640
    1CHOL    R515822   2.072  12.700   3.506 -0.1358 -0.0862 -0.0384
    1CHOL    C115823   2.347  12.789   3.755 -0.1370 -0.4076  0.0818
    1CHOL    C215824   2.282  12.604   4.070  0.0712 -0.0958 -0.0283
    1CHOL   ROH15825  25.147  20.476   2.702 -0.0853  0.2589  0.1625
    1CHOL    R115826  25.273  20.405   2.946 -0.1444  0.2570  0.1913
    1CHOL    R215827  25.169  20.476   3.193 -0.3119  0.0804  0.1687
    1CHOL    R315828  25.186  20.209   3.240 -0.1299  0.0728  0.0758
    1CHOL    R415829  25.279  20.333   3.488 -0.1675  0.0592  0.1064
    1CHOL    R515830  25.385  20.184   3.371 -0.0862  0.1634  0.0350
    1CHOL    C115831  25.359  20.000   3.704  0.0875  0.0399 -0.0170
    1CHOL    C215832  25.211  19.857   4.056 -0.1572 -0.3213  0.2169
    1CHOL   ROH15833  17.285  15.667   3.535  0.0628  0.1814 -0.0362
    1CHOL    R115834  17.345  15.803   3.776  0.1195  0.1790 -0.0493
    1CHOL    R215835  17.525  15.705   3.962  0.1219  0.1529 -0.0703
    1CHOL    R315836  17.641  15.948   3.930  0.1668  0.1294 -0.0892
    1CHOL    R415837  17.730  15.857   4.194  0.1965  0.0968 -0.0993
    1CHOL    R515838  17.633  16.047   4.149  0.2248  0.1230 -0.0795
    1CHOL    C115839  17.959  16.175   4.300  0.2821  0.0420 -0.1339
    1CHOL    C215840  17.999  16.449   4.593 -0.0946 -0.1617 -0.1317
    1CHOL   ROH15841   7.944   8.211   3.765  0.3177  0.0870  0.1348
    1CHOL    R115842   7.830   8.136   4.014  0.1234  0.2194  0.0885
    1CHOL    R215843   7.894   7.900   4.142 -0.3077  0.0704  0.0552
    1CHOL    R315844   7.951   8.066   4.350 -0.0770 -0.0655  0.1027
    1CHOL    R415845   7.896   7.807   4.475 -0.4469 -0.0149  0.0328
    1CHOL    R515846   7.802   7.997   4.524 -0.1770  0.1036  0.0801
    1CHOL    C115847   7.952   7.908   4.863 -0.3114 -0.1922  0.0642
    1CHOL    C215848   7.789   7.565   4.882  0.1709  0.2310 -0.2270
    1CHOL   ROH15849   0.232  13.286   2.547 -0.0409 -0.0995 -0.2581
    1CHOL    R115850   0.264  13.419   2.794  0.0157 -0.1206 -0.2541
    1CHOL    R215851   0.061  13.436   2.981  0.0322 -0.0663 -0.2413
    1CHOL    R315852   0.249  13.330   3.146  0.0097 -0.1322 -0.2574
    1CHOL    R415853   0.086  13.500   3.320  0.1235 -0.0259 -0.2550
    1CHOL    R515854   0.303  13.507   3.298  0.1231 -0.1347 -0.2939
    1CHOL    C115855   0.276  13.438   3.672  0.1554 -0.0643 -0.2781
    1CHOL    C215856  30.349  13.404   3.926  0.0079  0.0109 -0.0415
    1CHOL   ROH15857   0.077  11.816   2.574 -0.0015  0.0044 -0.1315
    1CHOL    R115858   0.058  11.909   2.841  0.1344  0.0822 -0.1478
    1CHOL    R215859  30.347  11.743   3.052 -0.1955  0.2287 -0.1273
    1CHOL    R315860   0.223  11.838   3.157 -0.0263 -0.1738 -0.1191
    1CHOL    R415861   0.076  11.733   3.387 -0.2435  0.1330 -0.1180
    1CHOL    R515862   0.159  11.933   3.367  0.1252 -0.0185 -0.1430
    1CHOL    C115863   0.342  11.817   3.681 -0.1127 -0.3004 -0.1048
    1CHOL    C215864   0.302  12.122   3.894  0.2739 -0.0078  0.2316
    1CHOL   ROH15865  23.671  15.809   2.606 -0.0361  0.1599 -0.0045
    1CHOL    R115866  23.651  15.687   2.861 -0.1581  0.1521 -0.0163
    1CHOL    R215867  23.867  15.659   3.030 -0.1709 -0.1202 -0.0312
    1CHOL    R315868  23.705  15.788   3.207 -0.0136  0.0536 -0.0114
    1CHOL    R415869  23.846  15.589   3.368 -0.2963 -0.1698 -0.0495
    1CHOL    R515870  23.631  15.616   3.356 -0.2563  0.1207 -0.0582
    1CHOL    C115871  23.682  15.668   3.730 -0.2215 -0.0354 -0.0416
    1CHOL    C215872  23.401  15.511   3.946 -0.0041  0.2853 -0.1049
    1CHOL   ROH15873   5.933  10.492   2.946  0.2115  0.0385  0.0839
    1CHOL    R115874   5.988  10.352   3.185  0.4756 -0.0543 -0.0245
    1CHOL    R215875   6.213  10.402   3.339  0.3544  0.3173  0.0679
    1CHOL    R315876   6.030  10.435   3.537  0.2169 -0.2502  0.0518
    1CHOL    R415877   6.285  10.403   3.677  0.2737  0.4008  0.0832
    1CHOL    R515878   6.103  10.289   3.711  0.5781 -0.1103  0.0122
    1CHOL    C115879   6.155  10.435   4.059  0.0976 -0.0834  0.0770
    1CHOL    C215880   6.313  10.526   4.428  0.0757  0.0348 -0.5011
    1CHOL   ROH15881   2.376  15.635   5.637 -0.0501 -0.3884  0.0152
    1CHOL    R115882   2.331  15.754   5.384 -0.0850 -0.1594  0.1253
    1CHOL    R215883   2.485  15.694   5.162 -0.0133  0.1566  0.0810
    1CHOL    R315884   2.244  15.639   5.049  0.0355  0.1198 -0.0044
    1CHOL    R415885   2.422  15.697   4.822  0.1469 -0.0222  0.0484
    1CHOL    R515886   2.229  15.792   4.865  0.1371  0.0196 -0.0946
    1CHOL    C115887   2.158  15.647   4.519  0.2861 -0.1608 -0.0507
    1CHOL    C215888   2.361  15.595   4.151 -0.0650  0.1362  0.2513
    1CHOL   ROH15889   0.398  22.232   2.824  0.1582  0.1129  0.0352
    1CHOL    R115890   0.477  22.187   3.093  0.2088  0.2117  0.0370
    1CHOL    R215891   0.552  22.393   3.262 -0.0539  0.3096  0.0376
    1CHOL    R315892   0.360  22.288   3.422  0.0727  0.0656  0.0350
    1CHOL    R415893   0.583  22.346   3.603 -0.0412  0.4755  0.0603
    1CHOL    R515894   0.480  22.155   3.581  0.2537  0.3026  0.1042
    1CHOL    C115895   0.421  22.220   3.952  0.0851  0.3431  0.0711
    1CHOL    C215896   0.664  22.293   4.175  0.2310 -0.4795  0.2264
    1CHOL   ROH15897  29.634  13.114   5.974 -0.0364  0.1080  0.0778
    1CHOL    R115898  29.782  13.007   5.758 -0.1931 -0.0834  0.0626
    1CHOL    R215899  29.675  12.824   5.580 -0.5289  0.2259 -0.0664
    1CHOL    R315900  29.755  13.005   5.395 -0.1007  0.1694  0.0525
    1CHOL    R415901  29.708  12.759   5.243 -0.5193  0.3233 -0.0844
    1CHOL    R515902  29.890  12.879   5.243 -0.2793 -0.0231  0.0480
    1CHOL    C115903  29.803  12.892   4.872 -0.1115  0.3269  0.0166
    1CHOL    C215904  29.735  12.673   4.486  0.1320 -0.1520  0.2075
    1CHOL   ROH15905   1.213  13.704   2.666  0.0616 -0.4266  0.0054
    1CHOL    R115906   1.154  13.707   2.942  0.1227 -0.4799  0.0171
    1CHOL    R215907   1.283  13.544   3.124  0.4596 -0.2155  0.0100
    1CHOL    R315908   1.334  13.779   3.250  0.0720 -0.0972 -0.0338
    1CHOL    R415909   1.240  13.600   3.462  0.4635 -0.2754  0.0226
    1CHOL    R515910   1.161  13.798   3.414  0.0762 -0.4084  0.0242
    1CHOL    C115911   1.262  13.854   3.778  0.1019 -0.1994 -0.0113
    1CHOL    C215912   1.273  13.637   4.029 -0.5037 -0.1300 -0.2400
    1CHOL   ROH15913  13.360  24.567   5.936 -0.1078  0.1353 -0.1322
    1CHOL    R115914  13.381  24.374   5.730 -0.0375  0.1519 -0.1433
    1CHOL    R215915  13.339  24.437   5.463  0.1046  0.1874 -0.1671
    1CHOL    R315916  13.585  24.327   5.433  0.1035  0.1543 -0.0444
    1CHOL    R415917  13.457  24.291   5.173  0.1566 -0.0449 -0.0299
    1CHOL    R515918  13.550  24.136   5.294  0.1286  0.0506  0.1007
    1CHOL    C115919  13.757  24.103   4.976  0.1860 -0.2113  0.1651
    1CHOL    C215920  13.816  24.024   4.642  0.1265 -0.3083  0.1915
    1CHOL   ROH15921   2.559  14.202   2.587  0.1045 -0.1224  0.0451
    1CHOL    R115922   2.459  14.245   2.848 -0.0303 -0.0857 -0.0117
    1CHOL    R215923   2.466  14.051   3.045  0.0052 -0.0098  0.0639
    1CHOL    R315924   2.593  14.245   3.187 -0.1696  0.1196  0.0453
    1CHOL    R415925   2.503  14.052   3.388 -0.2141  0.1856  0.0891
    1CHOL    R515926   2.463  14.267   3.387 -0.3071  0.1685 -0.0477
    1CHOL    C115927   2.643  14.235   3.722 -0.5059  0.4209  0.0863
    1CHOL    C215928   2.822  14.212   4.048  0.0469 -0.0701 -0.0516
    1CHOL   ROH15929  28.437  14.979   5.982 -0.0298  0.1338 -0.0965
    1CHOL    R115930  28.568  14.954   5.732 -0.0829  0.1235 -0.1230
    1CHOL    R215931  28.540  14.730   5.572 -0.1021  0.1111 -0.0981
    1CHOL    R315932  28.467  14.913   5.385 -0.1545  0.0895 -0.0997
    1CHOL    R415933  28.449  14.655   5.247  0.1362  0.0908 -0.1622
    1CHOL    R515934  28.561  14.830   5.181  0.0295  0.2024 -0.0676
    1CHOL    C115935  28.328  14.782   4.882  0.2257  0.0586 -0.2010
    1CHOL    C215936  28.400  14.704   4.480  0.0817 -0.0886 -0.0954
    1CHOL   ROH15937   7.437  29.261   4.929 -0.0085 -0.0477 -0.2223
    1CHOL    R115938   7.356  29.530   4.964 -0.0190 -0.0571 -0.1699
    1CHOL    R215939   7.520  29.722   5.075 -0.0646 -0.0957 -0.0269
    1CHOL    R315940   7.464  29.857   4.845  0.0456 -0.0208 -0.0104
    1CHOL    R415941   7.516  30.066   5.044 -0.1503 -0.0846  0.1047
    1CHOL    R515942   7.339  30.048   4.918 -0.0601 -0.0886 -0.0185
    1CHOL    C115943   7.460   0.038   4.811 -0.0967 -0.0076  0.1970
    1CHOL    C215944   7.564   0.392   4.983 -0.0464  0.1582  0.0874
    1CHOL   ROH15945  28.652   4.287   4.080  0.4044  0.0298 -0.0287
    1CHOL    R115946  28.793   4.455   4.258  0.2534 -0.0227  0.1433
    1CHOL    R215947  28.690   4.535   4.502  0.0918 -0.1861  0.1264
    1CHOL    R315948  28.922   4.432   4.598  0.0694 -0.1643  0.2065
    1CHOL    R415949  28.858   4.654   4.779  0.2960  0.2267 -0.1628
    1CHOL    R515950  29.046   4.624   4.672  0.2310 -0.0954 -0.2044
    1CHOL    C115951  29.174   4.626   5.031  0.3941  0.4874 -0.2559
    1CHOL    C215952  29.228   4.668   5.352  0.3772 -0.4230 -0.2337
    1CHOL   ROH15953   4.443  11.427   2.926 -0.1133 -0.0232 -0.1395
    1CHOL    R115954   4.309  11.370   3.168 -0.0558  0.0009 -0.1022
    1CHOL    R215955   4.440  11.276   3.392 -0.0065  0.0016 -0.1325
    1CHOL    R315956   4.320  11.489   3.512  0.0417  0.0172 -0.1105
    1CHOL    R415957   4.381  11.305   3.732 -0.1935 -0.1170 -0.1525
    1CHOL    R515958   4.187  11.393   3.686 -0.1185  0.0130 -0.2321
    1CHOL    C115959   4.235  11.523   4.041 -0.2572 -0.1716 -0.1435
    1CHOL    C215960   4.542  11.590   4.263 -0.0113 -0.0542  0.2453
    1CHOL   ROH15961  22.208   5.459   4.049  0.0162 -0.0958 -0.0533
    1CHOL    R115962  22.062   5.392   4.282 -0.0831 -0.0381 -0.0973
    1CHOL    R215963  22.172   5.405   4.536 -0.1305 -0.1559 -0.0653
    1CHOL    R315964  21.957   5.563   4.586 -0.0352 -0.0172 -0.0941
    1CHOL    R415965  22.025   5.447   4.845 -0.2243 -0.1509 -0.1108
    1CHOL    R515966  21.830   5.442   4.749 -0.1876  0.0238 -0.1855
    1CHOL    C115967  21.738   5.620   5.073 -0.1893 -0.0177 -0.1644
    1CHOL    C215968  21.757   5.923   5.444 -0.2195  0.1003  0.3023
    1CHOL   ROH15969  21.467  24.422   3.227 -0.3072  0.1381 -0.0509
    1CHOL    R115970  21.507  24.501   3.496 -0.1029 -0.0073 -0.0365
    1CHOL    R215971  21.754  24.580   3.592 -0.0586  0.0868 -0.2198
    1CHOL    R315972  21.617  24.801   3.670 -0.1289 -0.0474  0.0494
    1CHOL    R415973  21.821  24.766   3.876  0.1305 -0.0153 -0.1962
    1CHOL    R515974  21.607  24.785   3.908  0.1494 -0.1797  0.0556
    1CHOL    C115975  21.730  25.081   4.114  0.1743 -0.2009  0.0702
    1CHOL    C215976  21.526  25.272   4.364 -0.0447  0.0951 -0.1736
    1CHOL   ROH15977  29.487  18.793   5.973 -0.2846 -0.0030  0.1839
    1CHOL    R115978  29.504  18.815   5.691 -0.1586  0.0007  0.1918
    1CHOL    R215979  29.382  18.636   5.520 -0.0189 -0.0399  0.1358
    1CHOL    R315980  29.272  18.860   5.415 -0.0428 -0.0768  0.0805
    1CHOL    R415981  29.271  18.666   5.194  0.1335 -0.0804  0.0784
    1CHOL    R515982  29.355  18.867   5.190  0.0687 -0.0504  0.1208
    1CHOL    C115983  29.102  18.895   4.906  0.1999 -0.1387 -0.0068
    1CHOL    C215984  29.316  19.037   4.665  0.3349  0.1758  0.0166
    1CHOL   ROH15985   3.904   6.055   3.906  0.0498  0.0535  0.0591
    1CHOL    R115986   4.029   6.221   4.098 -0.0046  0.0474  0.0995
    1CHOL    R215987   3.985   6.194   4.370  0.1001 -0.1163  0.0993
    1CHOL    R315988   4.256   6.175   4.380  0.1180  0.0688  0.0061
    1CHOL    R415989   4.184   6.335   4.614  0.0574 -0.2092  0.1891
    1CHOL    R515990   4.328   6.389   4.459 -0.0192  0.0485  0.1985
    1CHOL    C115991   4.555   6.400   4.765  0.0494 -0.0896  0.1539
    1CHOL    C215992   4.968   6.380   4.914  0.1531 -0.2731 -0.0281
    1CHOL   ROH15993  10.275  27.888   3.644 -0.2805 -0.0331  0.0050
    1CHOL    R115994  10.165  27.641   3.728 -0.1408 -0.0333  0.1921
    1CHOL    R215995  10.199  27.407   3.586 -0.2680 -0.0571  0.2053
    1CHOL    R315996  10.292  27.314   3.824  0.0273  0.0092  0.1201
    1CHOL    R415997  10.310  27.084   3.642 -0.3590 -0.0917  0.1922
    1CHOL    R515998  10.211  27.089   3.836 -0.0810  0.0551  0.3414
    1CHOL    C115999  10.463  26.810   3.898 -0.1348 -0.0497  0.1046
    1CHOL    C216000  10.486  26.545   4.252 -0.0028 -0.3087 -0.2199
    1CHOL   ROH16001   3.971  13.964   5.973  0.2465  0.1381 -0.0780
    1CHOL    R116002   3.925  13.822   5.733  0.1886  0.0084  0.0087
    1CHOL    R216003   3.829  13.943   5.504  0.0047 -0.1393  0.0030
    1CHOL    R316004   4.050  13.832   5.391  0.0021 -0.0779 -0.0628
    1CHOL    R416005   3.883  13.910   5.164 -0.0242 -0.0083 -0.0148
    1CHOL    R516006   3.967  13.712   5.201 -0.0041 -0.0132 -0.0987
    1CHOL    C116007   4.122  13.786   4.861 -0.0434  0.1256 -0.0869
    1CHOL    C216008   4.121  13.559   4.749  0.1368  0.2944 -0.3250
    1CHOL   ROH16009   3.449  18.342   5.914  0.0494  0.0988  0.0181
    1CHOL    R116010   3.505  18.438   5.653  0.0680  0.0251 -0.0049
    1CHOL    R216011   3.567  18.270   5.443 -0.0991 -0.0484  0.0040
    1CHOL    R316012   3.362  18.399   5.321 -0.0290  0.0896  0.0286
    1CHOL    R416013   3.517  18.283   5.101 -0.2137 -0.1452  0.0162
    1CHOL    R516014   3.459  18.492   5.123 -0.0159 -0.0800 -0.0472
    1CHOL    C116015   3.295  18.411   4.788 -0.2147 -0.0721  0.0463
    1CHOL    C216016   3.331  18.573   4.527  0.3633 -0.0442 -0.1655
    1CHOL   ROH16017   1.555  14.584   2.391 -0.0652  0.2261 -0.0475
    1CHOL    R116018   1.449  14.582   2.654 -0.0986  0.1597 -0.0605
    1CHOL    R216019   1.609  14.584   2.879 -0.1257  0.0233 -0.0377
    1CHOL    R316020   1.459  14.800   2.945 -0.0642  0.0460  0.0246
    1CHOL    R416021   1.599  14.728   3.193  0.0264  0.0162 -0.0300
    1CHOL    R516022   1.384  14.754   3.168  0.0187  0.0517  0.0551
    1CHOL    C116023   1.452  15.015   3.438  0.1728  0.0332  0.0329
    1CHOL    C216024   1.591  15.192   3.731  0.0638 -0.0290 -0.3211
    1CHOL   ROH16025  27.766  25.074   3.270 -0.0234 -0.2544  0.0063
    1CHOL    R116026  27.712  24.935   3.511  0.0513 -0.3206 -0.0160
    1CHOL    R216027  27.906  24.794   3.648  0.1910 -0.0131  0.1037
    1CHOL    R316028  27.825  24.949   3.856 -0.1686 -0.1201  0.0512
    1CHOL    R416029  28.039  24.782   3.967 -0.0062  0.1668  0.1960
    1CHOL    R516030  27.837  24.804   4.046 -0.0998 -0.1095  0.0582
    1CHOL    C116031  28.040  24.920   4.348 -0.4585  0.1712  0.2003
    1CHOL    C216032  28.104  24.547   4.508 -0.1882 -0.0886 -0.0406
    1CHOL   ROH16033   9.668   6.509   4.724 -0.0022  0.0661 -0.2195
    1CHOL    R116034   9.914   6.575   4.848 -0.1657  0.2413  0.0240
    1CHOL    R216035  10.154   6.568   4.712  0.0545 -0.1706  0.4017
    1CHOL    R316036  10.175   6.824   4.801  0.0035  0.0356 -0.1434
    1CHOL    R416037  10.448   6.750   4.726  0.0504 -0.1486  0.2150
    1CHOL    R516038  10.384   6.831   4.918 -0.0826  0.2818 -0.0018
    1CHOL    C116039  10.638   7.097   4.818  0.0001  0.0578 -0.4055
    1CHOL    C216040  10.924   7.415   4.706 -0.1213  0.0172  0.0888
    1CHOL   ROH16041  17.689   9.556   5.147  0.0852 -0.0650 -0.0857
    1CHOL    R116042  17.546   9.511   4.907  0.0799 -0.0621 -0.0837
    1CHOL    R216043  17.578   9.282   4.756  0.0287 -0.0884 -0.0541
    1CHOL    R316044  17.308   9.266   4.783  0.0249 -0.0221 -0.0597
    1CHOL    R416045  17.367   9.117   4.537  0.0080 -0.0813 -0.0378
    1CHOL    R516046  17.225   9.281   4.559  0.0414 -0.0419 -0.0702
    1CHOL    C116047  16.991   9.007   4.435 -0.0078 -0.0149 -0.0337
    1CHOL    C216048  16.751   8.629   4.526  0.0178  0.1159  0.1906
    1CHOL   ROH16049   3.994  16.350   2.338  0.2981  0.0342 -0.0904
    1CHOL    R116050   3.898  16.336   2.604  0.1678  0.0014 -0.1385
    1CHOL    R216051   3.867  16.097   2.739  0.1540 -0.0115 -0.1644
    1CHOL    R316052   4.023  16.218   2.924  0.0344  0.0164 -0.0803
    1CHOL    R416053   3.898  15.996   3.067 -0.0100  0.0013 -0.1437
    1CHOL    R516054   3.897  16.205   3.127 -0.0745  0.0020 -0.1486
    1CHOL    C116055   4.064  16.051   3.433 -0.2178  0.0348 -0.0527
    1CHOL    C216056   4.157  16.088   3.731 -0.1754 -0.0569 -0.0489
    1CHOL   ROH16057   1.326  28.606   6.562  0.1728 -0.3439  0.2443
    1CHOL    R116058   1.302  28.445   6.331 -0.0216 -0.2325  0.1854
    1CHOL    R216059   1.087  28.464   6.159  0.0299  0.1378  0.1552
    1CHOL    R316060   1.280  28.501   5.972  0.1168 -0.0775  0.1992
    1CHOL    R416061   1.072  28.346   5.834 -0.0523  0.1905  0.1394
    1CHOL    R516062   1.283  28.295   5.848 -0.1125 -0.0725  0.1777
    1CHOL    C116063   1.245  28.312   5.469 -0.0186  0.0191  0.1714
    1CHOL    C216064   1.266  27.885   5.462 -0.0952 -0.2117 -0.1828
    1CHOL   ROH16065   5.507  28.465   6.538 -0.0454 -0.0283 -0.0992
    1CHOL    R116066   5.622  28.357   6.303  0.1851 -0.0379  0.0150
    1CHOL    R216067   5.500  28.376   6.055  0.2376 -0.3833 -0.0442
    1CHOL    R316068   5.738  28.485   5.983  0.1130 -0.1000 -0.0354
    1CHOL    R416069   5.616  28.401   5.731  0.2427 -0.2763 -0.0343
    1CHOL    R516070   5.815  28.349   5.802  0.3000 -0.0255 -0.0114
    1CHOL    C116071   5.907  28.519   5.474  0.1287  0.0518 -0.0202
    1CHOL    C216072   5.924  28.280   5.187 -0.6813  0.0908  0.0206
    1CHOL   ROH16073   1.755  16.967   5.817 -0.0358  0.0294 -0.0229
    1CHOL    R116074   1.654  16.875   5.569  0.0615 -0.0626 -0.0271
    1CHOL    R216075   1.529  17.041   5.387 -0.0800 -0.1793 -0.0265
    1CHOL    R316076   1.715  16.942   5.216  0.0148 -0.0083 -0.0274
    1CHOL    R416077   1.520  17.077   5.044  0.0017  0.0231 -0.0103
    1CHOL    R516078   1.589  16.871   5.026  0.0911  0.0515 -0.1089
    1CHOL    C116079   1.691  17.004   4.683  0.1383  0.3015 -0.0016
    1CHOL    C216080   1.397  17.166   4.495 -0.1974 -0.0030  0.1980
    1CHOL   ROH16081   4.382  14.490   6.002  0.0549 -0.0382 -0.1070
    1CHOL    R116082   4.331  14.645   5.771  0.2008  0.0136 -0.1055
    1CHOL    R216083   4.525  14.698   5.582  0.2294 -0.2456 -0.1518
    1CHOL    R316084   4.342  14.594   5.411  0.0566 -0.0238 -0.1055
    1CHOL    R416085   4.556  14.696   5.238  0.2191 -0.4159 -0.1520
    1CHOL    R516086   4.344  14.744   5.224  0.2861 -0.0881 -0.1596
    1CHOL    C116087   4.402  14.597   4.877  0.0508 -0.3069 -0.1087
    1CHOL    C216088   4.723  14.709   4.634 -0.0184  0.1701  0.0350
    1CHOL   ROH16089  10.361  13.619   3.632 -0.0560 -0.1648  0.3884
    1CHOL    R116090  10.170  13.790   3.754 -0.1233 -0.1520  0.2668
    1CHOL    R216091  10.073  13.747   4.009 -0.0401  0.0407  0.3328
    1CHOL    R316092  10.156  14.003   4.048 -0.1732  0.1279  0.0657
    1CHOL    R416093   9.974  13.948   4.272  0.0856  0.1587  0.2909
    1CHOL    R516094   9.962  14.115   4.132 -0.1685  0.0535  0.1794
    1CHOL    C116095   9.993  14.306   4.462  0.0338  0.3092  0.0158
    1CHOL    C216096  10.118  14.652   4.621  0.1384  0.1389  0.0742
    1CHOL   ROH16097   3.341  19.774   2.473 -0.0391  0.1880 -0.1095
    1CHOL    R116098   3.231  19.866   2.717 -0.0752  0.1404 -0.1092
    1CHOL    R216099   3.227  19.712   2.946 -0.0378  0.1271 -0.1231
    1CHOL    R316100   3.351  19.928   3.055 -0.1085  0.1575 -0.0994
    1CHOL    R416101   3.252  19.773   3.285 -0.0106  0.0662 -0.1127
    1CHOL    R516102   3.214  19.985   3.244 -0.1052  0.0622 -0.0648
    1CHOL    C116103   3.382  20.011   3.586 -0.0611  0.0592 -0.0844
    1CHOL    C216104   3.583  20.004   4.007  0.0642 -0.0598  0.3756
    1CHOL   ROH16105   1.718  11.632   3.094 -0.4222  0.1437  0.0506
    1CHOL    R116106   1.796  11.756   3.336 -0.5695  0.2415  0.0472
    1CHOL    R216107   1.619  11.804   3.543 -0.5597 -0.3120  0.1875
    1CHOL    R316108   1.802  11.666   3.689 -0.0877  0.0911  0.0118
    1CHOL    R416109   1.654  11.827   3.886 -0.6842 -0.6307  0.2262
    1CHOL    R516110   1.871  11.821   3.859 -0.6250  0.1347  0.2220
    1CHOL    C116111   1.846  11.710   4.223 -0.3137 -0.4376  0.0839
    1CHOL    C216112   1.766  11.958   4.582 -0.0310 -0.0823  0.0688
    1CHOL   ROH16113  26.553  20.085   5.793  0.0411 -0.1520  0.0128
    1CHOL    R116114  26.414  20.134   5.551  0.0325 -0.0607  0.0364
    1CHOL    R216115  26.515  20.296   5.351  0.1145 -0.1437  0.0119
    1CHOL    R316116  26.471  20.077   5.196 -0.0746 -0.1183  0.0278
    1CHOL    R416117  26.503  20.298   5.006  0.2404 -0.1766  0.0065
    1CHOL    R516118  26.336  20.159   5.016  0.0785  0.0093 -0.0324
    1CHOL    C116119  26.454  20.094   4.659  0.1363 -0.1724  0.0184
    1CHOL    C216120  26.501  20.082   4.318  0.1337 -0.0959 -0.1185
    1CHOL   ROH16121  27.718  17.680   5.743  0.0702 -0.1629  0.1795
    1CHOL    R116122  27.563  17.712   5.509  0.1076 -0.1493  0.1581
    1CHOL    R216123  27.532  17.956   5.383  0.0989 -0.1410  0.1925
    1CHOL    R316124  27.621  17.818   5.166  0.1488 -0.0925  0.1801
    1CHOL    R416125  27.415  18.000   5.061 -0.2972 -0.4985  0.2770
    1CHOL    R516126  27.424  17.784   5.034  0.0689 -0.5126  0.3806
    1CHOL    C116127  27.430  17.897   4.669 -0.4811 -0.6609  0.3144
    1CHOL    C216128  27.408  18.024   4.218 -0.0314 -0.0103  0.0153
    1CHOL   ROH16129  29.363  10.998   6.066  0.1556 -0.0726  0.1440
    1CHOL    R116130  29.448  11.028   5.797  0.1462 -0.0965  0.1383
    1CHOL    R216131  29.675  10.905   5.698  0.0790 -0.2003  0.1101
    1CHOL    R316132  29.502  10.810   5.511  0.0150 -0.1056  0.1200
    1CHOL    R416133  29.762  10.817   5.375  0.0027 -0.2199  0.0946
    1CHOL    R516134  29.576  10.908   5.306  0.0397 -0.1274  0.1195
    1CHOL    C116135  29.650  10.676   5.012 -0.1018 -0.1423  0.0949
    1CHOL    C216136  29.827  10.401   4.945 -0.0146 -0.0949  0.2131
    1CHOL   ROH16137  28.396  20.725   2.495  0.2927  0.3386  0.0925
    1CHOL    R116138  28.456  20.771   2.768  0.0081  0.2154  0.1789
    1CHOL    R216139  28.288  20.690   2.973 -0.1029 -0.0795 -0.0190
    1CHOL    R316140  28.512  20.567   3.064 -0.0643  0.0695  0.0920
    1CHOL    R416141  28.338  20.590   3.299 -0.2549 -0.1806 -0.0252
    1CHOL    R516142  28.545  20.658   3.283 -0.2999  0.0008  0.1570
    1CHOL    C116143  28.578  20.416   3.576 -0.3072 -0.0998  0.0754
    1CHOL    C216144  28.642  20.466   3.934  0.0604 -0.0533  0.0754
    1CHOL   ROH16145   5.263  20.869   5.583 -0.1294  0.1485  0.1337
    1CHOL    R116146   5.175  20.788   5.327 -0.1084  0.2085  0.1062
    1CHOL    R216147   5.076  20.966   5.141  0.0193  0.2726  0.0906
    1CHOL    R316148   5.267  20.857   4.981  0.0088  0.1911  0.1352
    1CHOL    R416149   5.118  21.039   4.805 -0.0830 -0.0123  0.0136
    1CHOL    R516150   5.159  20.827   4.770 -0.0309 -0.0275  0.1887
    1CHOL    C116151   5.323  20.979   4.461 -0.1523 -0.2548  0.0106
    1CHOL    C216152   5.219  20.982   4.064  0.2444  0.2216  0.0308
    1CHOL   ROH16153  27.771  20.554   5.828  0.0387  0.4270  0.0423
    1CHOL    R116154  27.707  20.518   5.554  0.1984  0.0674  0.0464
    1CHOL    R216155  27.503  20.657   5.430  0.0613 -0.3253 -0.1819
    1CHOL    R316156  27.700  20.726   5.256  0.0444 -0.2362 -0.1663
    1CHOL    R416157  27.451  20.800   5.119  0.0265 -0.2479 -0.1408
    1CHOL    R516158  27.610  20.674   5.040  0.0507 -0.1936 -0.1797
    1CHOL    C116159  27.606  20.948   4.775 -0.0099 -0.1192 -0.1023
    1CHOL    C216160  27.639  21.030   4.417 -0.2144 -0.1286  0.4136
    1CHOL   ROH16161   0.416   5.692   3.467 -0.1103  0.0499 -0.0052
    1CHOL    R116162   0.317   5.868   3.666  0.1034  0.0966  0.0632
    1CHOL    R216163   0.116   5.796   3.841 -0.1041  0.3267 -0.0693
    1CHOL    R316164   0.297   5.870   4.030 -0.0472 -0.1065  0.0569
    1CHOL    R416165   0.036   5.939   4.146  0.0249  0.3531 -0.0479
    1CHOL    R516166   0.206   6.072   4.122  0.3015  0.0339  0.0980
    1CHOL    C116167   0.159   6.092   4.500  0.1533 -0.0382  0.0830
    1CHOL    C216168  30.348   6.092   4.911  0.1694 -0.1806  0.1241
    1CHOL   ROH16169  27.742  22.321   2.788 -0.0259  0.2286 -0.0489
    1CHOL    R116170  27.880  22.323   3.035  0.0289  0.0721 -0.0774
    1CHOL    R216171  27.835  22.514   3.229  0.1843  0.0403 -0.0111
    1CHOL    R316172  27.792  22.297   3.388  0.0903  0.0182 -0.0651
    1CHOL    R416173  27.734  22.528   3.560  0.1619  0.0043 -0.0160
    1CHOL    R516174  27.872  22.365   3.603  0.0993 -0.0594 -0.0420
    1CHOL    C116175  27.636  22.332   3.901  0.0607 -0.0376 -0.0695
    1CHOL    C216176  27.383  22.479   4.160  0.2488  0.0889 -0.0898
    1CHOL   ROH16177  25.783  24.000   5.964  0.0949  0.0904  0.0791
    1CHOL    R116178  25.903  23.932   5.716 -0.2101 -0.1162 -0.0158
    1CHOL    R216179  25.756  23.871   5.491 -0.5089  0.5498 -0.0041
    1CHOL    R316180  25.907  24.067   5.378  0.1158  0.1548  0.0834
    1CHOL    R416181  25.944  23.835   5.203 -0.7137  0.0710 -0.0906
    1CHOL    R516182  26.101  23.953   5.297 -0.2570 -0.4784 -0.0452
    1CHOL    C116183  26.196  23.998   4.931 -0.2464 -0.5786 -0.0588
    1CHOL    C216184  26.528  24.079   4.765  0.0083 -0.1971  0.0176
    1CHOL   ROH16185   2.421  29.473   6.881 -0.1715 -0.0946  0.1327
    1CHOL    R116186   2.340  29.562   6.624  0.0301  0.0057  0.1011
    1CHOL    R216187   2.519  29.597   6.415  0.1698 -0.1021  0.1963
    1CHOL    R316188   2.348  29.430   6.285  0.1060  0.0460  0.0881
    1CHOL    R416189   2.474  29.586   6.073  0.3844 -0.0787  0.1665
    1CHOL    R516190   2.261  29.562   6.106  0.3418  0.1139  0.0239
    1CHOL    C116191   2.288  29.423   5.751  0.4495  0.0739  0.0478
    1CHOL    C216192   2.193  29.590   5.424  0.1417  0.1578 -0.1448
    1CHOL   ROH16193  10.309  16.226   2.936  0.1456 -0.0929  0.0942
    1CHOL    R116194  10.325  16.250   3.217  0.1287 -0.0963  0.0954
    1CHOL    R216195  10.101  16.256   3.379  0.1166  0.0089  0.0728
    1CHOL    R316196  10.226  16.050   3.505  0.0090 -0.0466  0.0901
    1CHOL    R416197  10.005  16.124   3.684  0.0554  0.1041  0.0951
    1CHOL    R516198  10.216  16.108   3.738  0.0533 -0.0080  0.0848
    1CHOL    C116199  10.066  15.854   3.979 -0.0812  0.1075  0.1243
    1CHOL    C216200  10.044  15.975   4.336  0.1816 -0.2192  0.1348
    1CHOL   ROH16201   6.699   8.431   5.900  0.1351  0.0890 -0.0633
    1CHOL    R116202   6.696   8.275   5.664  0.1525  0.1578 -0.1091
    1CHOL    R216203   6.467   8.155   5.567  0.2158 -0.0590 -0.0000
    1CHOL    R316204   6.531   8.290   5.340 -0.0698  0.0831 -0.0007
    1CHOL    R416205   6.303   8.124   5.264  0.0083 -0.0711  0.1119
    1CHOL    R516206   6.496   8.132   5.164 -0.0757  0.1249 -0.0351
    1CHOL    C116207   6.268   8.232   4.875 -0.3805  0.0551  0.1765
    1CHOL    C216208   6.331   8.362   4.444  0.0757  0.0472 -0.1179
    1CHOL   ROH16209   3.230  22.455   6.125  0.0427  0.0224  0.0292
    1CHOL    R116210   3.305  22.409   5.855 -0.0867 -0.0528  0.0034
    1CHOL    R216211   3.120  22.361   5.655 -0.2091  0.1991  0.0427
    1CHOL    R316212   3.246  22.570   5.534  0.0278  0.0536  0.0364
    1CHOL    R416213   3.159  22.399   5.314 -0.2794  0.2150  0.0380
    1CHOL    R516214   3.361  22.471   5.349 -0.1707 -0.0628 -0.0220
    1CHOL    C116215   3.299  22.616   5.002 -0.0979  0.0879  0.0293
    1CHOL    C216216   3.129  22.480   4.700 -0.1548 -0.1873 -0.1196
    1CHOL   ROH16217   1.008  18.498   6.175  0.0202  0.0973  0.0155
    1CHOL    R116218   1.029  18.580   5.905 -0.0621  0.0646 -0.0017
    1CHOL    R216219   1.253  18.706   5.805 -0.1375  0.1621 -0.0580
    1CHOL    R316220   1.245  18.505   5.622 -0.0669  0.1253 -0.0204
    1CHOL    R416221   1.260  18.750   5.462 -0.1028  0.0904 -0.0662
    1CHOL    R516222   1.111  18.592   5.444 -0.0613  0.0554 -0.0552
    1CHOL    C116223   1.256  18.586   5.091 -0.0165  0.0146 -0.0357
    1CHOL    C216224   1.317  18.690   4.737 -0.2354 -0.2577 -0.0038
    1CHOL   ROH16225   2.778  13.730   5.785  0.0685  0.0481 -0.1826
    1CHOL    R116226   2.751  13.852   5.531  0.0482  0.0390 -0.1837
    1CHOL    R216227   2.961  13.876   5.355  0.0264  0.0138 -0.2067
    1CHOL    R316228   2.791  13.751   5.184 -0.0027  0.0231 -0.1863
    1CHOL    R416229   2.999  13.868   5.012  0.0589 -0.0925 -0.2018
    1CHOL    R516230   2.783  13.896   4.993  0.0658 -0.0230 -0.2284
    1CHOL    C116231   2.862  13.746   4.651  0.0507 -0.1457 -0.1799
    1CHOL    C216232   3.238  13.680   4.445  0.0586 -0.1538 -0.1822
    1CHOL   ROH16233   0.073  17.292   2.378  0.2484 -0.1514  0.0011
    1CHOL    R116234  30.314  17.422   2.602  0.1383 -0.1534 -0.0529
    1CHOL    R216235  30.175  17.287   2.799  0.1861 -0.1794 -0.0338
    1CHOL    R316236  30.353  17.410   2.964  0.0922 -0.0288 -0.0439
    1CHOL    R416237  30.186  17.248   3.142  0.2102 -0.1279 -0.0289
    1CHOL    R516238  30.226  17.461   3.160  0.0525 -0.0979 -0.0535
    1CHOL    C116239   0.003  17.341   3.497  0.1355  0.0434 -0.0356
    1CHOL    C216240  30.322  17.418   3.790 -0.0692  0.0892 -0.2198
    1CHOL   ROH16241  29.345  17.645   5.777  0.3070  0.0650 -0.1270
    1CHOL    R116242  29.200  17.635   5.534  0.0948  0.0896 -0.0057
    1CHOL    R216243  29.098  17.861   5.412  0.2006  0.1382 -0.0253
    1CHOL    R316244  29.238  17.769   5.198 -0.0510 -0.0930 -0.0939
    1CHOL    R416245  29.030  17.942   5.083  0.1895  0.2481  0.0050
    1CHOL    R516246  29.071  17.735   5.029 -0.1813  0.1833 -0.0180
    1CHOL    C116247  29.122  17.903   4.690 -0.0534  0.0949 -0.0418
    1CHOL    C216248  29.100  18.130   4.316  0.3600  0.2748  0.0461
    1CHOL   ROH16249  20.185  21.812   5.634  0.2258 -0.1879 -0.3453
    1CHOL    R116250  20.039  21.799   5.392  0.1473 -0.0587 -0.3063
    1CHOL    R216251  19.779  21.888   5.370  0.0800 -0.1989 -0.1320
    1CHOL    R316252  19.880  22.037   5.166 -0.0806  0.0507 -0.0340
    1CHOL    R416253  19.609  21.967   5.079  0.0632 -0.3427 -0.1619
    1CHOL    R516254  19.794  21.933   4.968  0.1575 -0.0026 -0.1095
    1CHOL    C116255  19.605  22.152   4.719 -0.0971 -0.1918 -0.0872
    1CHOL    C216256  19.297  22.257   4.673 -0.2969  0.2108  0.2562
    1CHOL   ROH16257  26.088  10.392   5.683 -0.0950 -0.1301  0.0218
    1CHOL    R116258  26.089  10.206   5.470 -0.0793 -0.1147  0.0061
    1CHOL    R216259  25.992  10.267   5.218  0.0461 -0.0558 -0.0385
    1CHOL    R316260  26.239  10.183   5.139  0.0507 -0.1399  0.0690
    1CHOL    R416261  26.073  10.157   4.900  0.2522  0.2881 -0.1086
    1CHOL    R516262  26.196  10.002   4.990  0.0523  0.0856 -0.2006
    1CHOL    C116263  26.351  10.015   4.642  0.3764  0.4092 -0.0485
    1CHOL    C216264  26.683   9.852   4.487  0.1879  0.3880 -0.0675
    1CHOL   ROH16265  23.951  23.055   3.407  0.0200 -0.0208  0.1533
    1CHOL    R116266  23.780  23.065   3.633 -0.0924 -0.0739  0.0718
    1CHOL    R216267  23.572  22.888   3.670  0.0679 -0.2668  0.0686
    1CHOL    R316268  23.694  22.845   3.909  0.0078 -0.0190  0.1474
    1CHOL    R416269  23.428  22.724   3.938  0.1571 -0.3802  0.0477
    1CHOL    R516270  23.519  22.871   4.071 -0.1148 -0.2078  0.0488
    1CHOL    C116271  23.460  22.587   4.319  0.1526 -0.2136  0.1096
    1CHOL    C216272  23.105  22.372   4.464  0.0547 -0.0687 -0.1781
    1CHOL   ROH16273  24.936  15.214   2.754  0.2583 -0.1597  0.1318
    1CHOL    R116274  24.844  15.210   3.022  0.1272 -0.0719  0.0894
    1CHOL    R216275  24.928  15.020   3.204  0.0281 -0.0192  0.1885
    1CHOL    R316276  24.994  15.238   3.352 -0.0334  0.0222  0.1557
    1CHOL    R416277  24.936  15.029   3.550 -0.0554  0.0546  0.1890
    1CHOL    R516278  24.847  15.228   3.542 -0.0788  0.0443  0.1239
    1CHOL    C116279  25.003  15.239   3.890 -0.1614  0.1364  0.1585
    1CHOL    C216280  25.120  15.107   4.277  0.2432  0.0282  0.3183
    1CHOL   ROH16281  26.924  18.896   5.367 -0.1390 -0.0818  0.0226
    1CHOL    R116282  26.807  18.846   5.114 -0.1476 -0.0401  0.0176
    1CHOL    R216283  26.688  19.044   4.963 -0.1790 -0.0192  0.0654
    1CHOL    R316284  26.860  18.958   4.772 -0.1780  0.0409  0.0397
    1CHOL    R416285  26.666  19.124   4.628 -0.2447 -0.0128  0.0715
    1CHOL    R516286  26.721  18.919   4.580 -0.1893  0.0072  0.0563
    1CHOL    C116287  26.816  19.090   4.253 -0.2822  0.0473  0.0510
    1CHOL    C216288  26.886  18.964   3.904  0.0701  0.1954  0.3743
    1CHOL   ROH16289   0.265  24.674   5.150  0.0159  0.1187 -0.0204
    1CHOL    R116290   0.547  24.690   5.146  0.0173  0.2337  0.2849
    1CHOL    R216291   0.698  24.709   5.377 -0.2044 -0.2924  0.4921
    1CHOL    R316292   0.825  24.492   5.273 -0.0390  0.0033  0.0527
    1CHOL    R416293   1.038  24.649   5.400 -0.1840 -0.1711  0.5092
    1CHOL    R516294   1.034  24.578   5.194 -0.0462  0.2939  0.3411
    1CHOL    C116295   1.355  24.410   5.316 -0.0169  0.1772  0.1066
    1CHOL    C216296   1.546  24.386   5.588 -0.2317  0.1478  0.2390
    1CHOL   ROH16297  10.674  13.234   3.518  0.1309 -0.1816 -0.1117
    1CHOL    R116298  10.492  13.225   3.734  0.2655 -0.2045 -0.0008
    1CHOL    R216299  10.573  13.187   3.996  0.4639  0.1401 -0.0192
    1CHOL    R316300  10.434  13.417   4.038  0.1990  0.0091 -0.1415
    1CHOL    R416301  10.393  13.260   4.282  0.6846  0.2066  0.1073
    1CHOL    R516302  10.238  13.347   4.156  0.4137 -0.1415  0.1598
    1CHOL    C116303  10.157  13.518   4.488  0.5643  0.1224  0.0662
    1CHOL    C216304  10.343  13.499   4.752  0.3771  0.0623  0.1062
    1CHOL   ROH16305   5.736  23.718   5.995  0.0867 -0.3972 -0.0289
    1CHOL    R116306   5.768  23.860   5.752  0.2840 -0.1750  0.1238
    1CHOL    R216307   6.001  23.850   5.604  0.1855 -0.5509 -0.0026
    1CHOL    R316308   5.833  23.776   5.404 -0.1060  0.0850 -0.0211
    1CHOL    R416309   6.039  23.939   5.273  0.3944 -0.4333  0.0495
    1CHOL    R516310   5.823  23.968   5.261  0.4511  0.2385  0.1105
    1CHOL    C116311   5.903  23.921   4.891  0.2423  0.2321  0.0626
    1CHOL    C216312   6.129  23.914   4.508 -0.1864  0.0349  0.0774
    1CHOL   ROH16313   7.859  19.157   5.138  0.0471 -0.3493 -0.2053
    1CHOL    R116314   7.714  19.169   4.895  0.0416 -0.2555 -0.1968
    1CHOL    R216315   7.640  19.408   4.779  0.0591 -0.2138 -0.1122
    1CHOL    R316316   7.768  19.306   4.562  0.0401 -0.1481 -0.1555
    1CHOL    R416317   7.573  19.495   4.451 -0.2180 -0.3562 -0.0964
    1CHOL    R516318   7.596  19.285   4.396 -0.0439 -0.3568 -0.0533
    1CHOL    C116319   7.654  19.449   4.056 -0.3972 -0.3775 -0.1279
    1CHOL    C216320   7.927  19.649   3.811 -0.0123 -0.0570  0.0977
    1CHOL   ROH16321   6.017  12.615   6.135 -0.0299 -0.1094  0.0216
    1CHOL    R116322   5.869  12.637   5.894 -0.0714 -0.3091  0.0266
    1CHOL    R216323   5.945  12.806   5.688 -0.3824 -0.0916  0.0801
    1CHOL    R316324   5.931  12.578   5.541  0.0528 -0.0798  0.0086
    1CHOL    R416325   5.869  12.792   5.351 -0.3950 -0.1387  0.0851
    1CHOL    R516326   5.749  12.615   5.390 -0.0422 -0.3943  0.0426
    1CHOL    C116327   5.811  12.570   5.017  0.0063 -0.1549  0.0209
    1CHOL    C216328   5.879  12.594   4.665 -0.2124 -0.0694  0.2994
    1CHOL   ROH16329   5.176  15.756   5.839  0.0297 -0.2866  0.0726
    1CHOL    R116330   5.192  15.572   5.625  0.0903 -0.1879 -0.0082
    1CHOL    R216331   4.982  15.527   5.452  0.0973 -0.1994 -0.0105
    1CHOL    R316332   5.168  15.586   5.262  0.0588 -0.0426 -0.0018
    1CHOL    R416333   4.932  15.496   5.111  0.1113 -0.1732 -0.0152
    1CHOL    R516334   5.136  15.418   5.094  0.1660 -0.0373 -0.0309
    1CHOL    C116335   5.078  15.533   4.735  0.0832 -0.0107 -0.0097
    1CHOL    C216336   5.219  15.243   4.544  0.2725 -0.1746  0.1468
    1CHOL   ROH16337   6.102  15.151   2.592  0.1773 -0.3749 -0.0083
    1CHOL    R116338   6.036  15.305   2.820  0.2172 -0.3231 -0.0318
    1CHOL    R216339   5.797  15.276   2.957  0.1498 -0.1420 -0.1117
    1CHOL    R316340   5.961  15.241   3.171  0.0505 -0.2627 -0.0539
    1CHOL    R416341   5.707  15.329   3.286  0.1139  0.1080 -0.1605
    1CHOL    R516342   5.902  15.418   3.320  0.2246 -0.1204 -0.1444
    1CHOL    C116343   5.808  15.327   3.678 -0.0002  0.1403 -0.1347
    1CHOL    C216344   5.902  15.297   4.040  0.1385  0.0379 -0.0844
    1CHOL   ROH16345   2.033  17.912   5.753 -0.0881  0.0205  0.0790
    1CHOL    R116346   2.029  17.839   5.480 -0.0265 -0.0060  0.0852
    1CHOL    R216347   1.820  17.904   5.311 -0.0476 -0.1326  0.0626
    1CHOL    R316348   2.018  18.012   5.160 -0.0928 -0.0400  0.0688
    1CHOL    R416349   1.832  17.894   4.966 -0.0899 -0.0281  0.0575
    1CHOL    R516350   2.047  17.857   4.980 -0.0785  0.0192  0.0191
    1CHOL    C116351   2.026  17.990   4.623 -0.1568  0.1196  0.0604
    1CHOL    C216352   2.030  18.028   4.248 -0.2256 -0.1744  0.1899
    1CHOL   ROH16353   7.238  15.405   5.974 -0.0666 -0.1279 -0.1324
    1CHOL    R116354   7.411  15.291   5.780  0.1375  0.1232 -0.1028
    1CHOL    R216355   7.324  15.105   5.595  0.5143 -0.2840  0.1142
    1CHOL    R316356   7.430  15.281   5.417 -0.0160 -0.1693 -0.1057
    1CHOL    R416357   7.409  15.029   5.268  0.2107 -0.2692  0.0287
    1CHOL    R516358   7.587  15.152   5.291  0.0421  0.0466 -0.2604
    1CHOL    C116359   7.557  15.151   4.911 -0.4640 -0.1529 -0.2276
    1CHOL    C216360   7.584  14.909   4.597  0.4097  0.0432 -0.2126
    1CHOL   ROH16361  22.855  15.187   2.667  0.2590 -0.0130  0.1413
    1CHOL    R116362  22.678  15.287   2.863  0.0666 -0.0924  0.0107
    1CHOL    R216363  22.547  15.123   3.043  0.2621 -0.1246  0.1249
    1CHOL    R316364  22.659  15.290   3.226 -0.0187  0.2058  0.0071
    1CHOL    R416365  22.478  15.119   3.382  0.3571 -0.0890  0.1449
    1CHOL    R516366  22.482  15.337   3.380 -0.0826 -0.0713  0.0262
    1CHOL    C116367  22.543  15.273   3.751  0.1487  0.2419  0.0460
    1CHOL    C216368  22.383  15.371   4.131 -0.0088 -0.0195 -0.2323
    1CHOL   ROH16369  13.562  21.050   5.174 -0.0255  0.0030  0.1508
    1CHOL    R116370  13.646  21.081   4.905 -0.1412  0.0539  0.1198
    1CHOL    R216371  13.545  21.277   4.739 -0.1382  0.1506  0.2306
    1CHOL    R316372  13.808  21.339   4.706 -0.1274  0.0495  0.1257
    1CHOL    R416373  13.670  21.480   4.489 -0.1324 -0.0788  0.0449
    1CHOL    R516374  13.838  21.342   4.468 -0.1767 -0.1436  0.1152
    1CHOL    C116375  13.989  21.656   4.311 -0.1189 -0.3070 -0.1617
    1CHOL    C216376  14.239  21.678   4.043  0.0203  0.1739  0.0435
    1CHOL   ROH16377   8.698  14.752   6.584 -0.1442  0.0897 -0.0186
    1CHOL    R116378   8.589  14.667   6.337 -0.1158  0.0875 -0.0307
    1CHOL    R216379   8.693  14.745   6.093 -0.0633  0.0567 -0.0216
    1CHOL    R316380   8.704  14.477   6.049 -0.0927  0.0513  0.0038
    1CHOL    R416381   8.633  14.593   5.789 -0.1688  0.0159  0.0188
    1CHOL    R516382   8.526  14.435   5.894 -0.1408  0.0374  0.0685
    1CHOL    C116383   8.609  14.253   5.570 -0.2578 -0.0131  0.0662
    1CHOL    C216384   8.684  14.205   5.202  0.0689  0.1673 -0.1140
    1CHOL   ROH16385   2.579  23.511   3.178  0.1329 -0.0373 -0.1819
    1CHOL    R116386   2.560  23.387   3.432  0.0653  0.0546 -0.1410
    1CHOL    R216387   2.733  23.186   3.514 -0.0688 -0.0453 -0.0921
    1CHOL    R316388   2.773  23.352   3.725  0.0661 -0.0047 -0.1490
    1CHOL    R416389   2.833  23.086   3.829 -0.3660 -0.0492  0.0035
    1CHOL    R516390   2.694  23.229   3.914 -0.2047  0.1922 -0.1296
    1CHOL    C116391   2.929  23.184   4.211 -0.4124 -0.0132  0.0058
    1CHOL    C216392   3.022  23.058   4.551 -0.0304  0.3749  0.1674
    1CHOL   ROH16393   2.588  16.569   5.809  0.0019 -0.0360  0.1824
    1CHOL    R116394   2.568  16.712   5.565  0.1881 -0.0646  0.1495
    1CHOL    R216395   2.733  16.662   5.350  0.0502 -0.4138  0.1204
    1CHOL    R316396   2.498  16.632   5.217 -0.0422 -0.0401  0.1885
    1CHOL    R416397   2.698  16.671   5.006 -0.0041 -0.5325  0.1218
    1CHOL    R516398   2.514  16.785   5.033  0.2105 -0.1637  0.1028
    1CHOL    C116399   2.457  16.648   4.681 -0.1225 -0.2509  0.1866
    1CHOL    C216400   2.761  16.400   4.468 -0.1707  0.1301  0.1859
    1CHOL   ROH16401   5.357  24.683   5.934  0.1772  0.1402 -0.0863
    1CHOL    R116402   5.443  24.800   5.690  0.3355 -0.0884 -0.1440
    1CHOL    R216403   5.607  24.667   5.511  0.0255 -0.4648 -0.1656
    1CHOL    R316404   5.409  24.727   5.335  0.0788 -0.1173 -0.1142
    1CHOL    R416405   5.645  24.683   5.168 -0.0672 -0.6841 -0.1872
    1CHOL    R516406   5.516  24.858   5.167  0.2969 -0.4070 -0.2073
    1CHOL    C116407   5.481  24.748   4.803 -0.0712 -0.4852 -0.1515
    1CHOL    C216408   5.571  25.021   4.578 -0.0506 -0.4047  0.1244
    1CHOL   ROH16409  14.031   9.419   6.135 -0.0413 -0.0516  0.0965
    1CHOL    R116410  14.013   9.162   6.017  0.4561 -0.1109  0.1333
    1CHOL    R216411  13.865   9.114   5.789  0.0227 -0.5380  0.4936
    1CHOL    R316412  14.100   9.013   5.696  0.1387  0.1855 -0.1004
    1CHOL    R416413  13.897   8.903   5.517 -0.0436 -0.5327  0.4800
    1CHOL    R516414  14.047   8.790   5.628  0.6500 -0.0328  0.1404
    1CHOL    C116415  14.136   8.685   5.272  0.0267  0.1498 -0.0855
    1CHOL    C216416  14.147   8.532   4.903 -0.0471 -0.0734 -0.1287
    1DPPC   NC316417  25.679  14.215   1.931 -0.4345  0.2447 -0.1491
    1DPPC   PO416418  25.563  13.937   2.242 -0.1115 -0.2092 -0.4145
    1DPPC   GL116419  25.743  13.789   2.632 -0.1489  0.1377  0.3643
    1DPPC   GL216420  25.691  14.084   2.722  0.2443  0.0422 -0.2694
    1DPPC   C1A16421  25.958  13.790   3.023  0.2672 -0.0157 -0.1390
    1DPPC   C2A16422  26.210  13.822   3.332  0.0927 -0.3095  0.3367
    1DPPC   C3A16423  26.510  14.025   3.544 -0.0727 -0.2015 -0.0613
    1DPPC   C4A16424  26.560  14.071   3.934  0.1289  0.0975 -0.0608
    1DPPC   C1B16425  25.647  14.211   3.212 -0.0518  0.3209 -0.0459
    1DPPC   C2B16426  25.850  14.095   3.606  0.1484 -0.2825  0.0815
    1DPPC   C3B16427  26.126  13.788   3.841  0.0696 -0.0153  0.3291
    1DPPC   C4B16428  26.417  13.572   3.882  0.1971  0.1688 -0.1248
    1DPPC   NC316429   4.966  24.242   2.695  0.1676  0.3687 -0.3611
    1DPPC   PO416430   4.801  23.875   2.469 -0.1002  0.2131  0.1592
    1DPPC   GL116431   4.695  23.761   2.885  0.0372  0.2512  0.3466
    1DPPC   GL216432   4.424  23.525   2.858 -0.1604 -0.0861  0.0236
    1DPPC   C1A16433   4.712  23.576   3.281 -0.1462  0.1173 -0.0168
    1DPPC   C2A16434   4.793  23.173   3.477  0.1922  0.1467 -0.0648
    1DPPC   C3A16435   5.066  22.922   3.736 -0.1132 -0.1743 -0.0977
    1DPPC   C4A16436   5.376  22.593   3.823  0.0897 -0.2172 -0.1566
    1DPPC   C1B16437   4.105  23.387   3.111  0.0543 -0.1162  0.0392
    1DPPC   C2B16438   3.877  23.148   3.311 -0.1377 -0.0961  0.2846
    1DPPC   C3B16439   3.799  23.004   3.636  0.1981  0.2053  0.1204
    1DPPC   C4B16440   3.580  22.943   4.027 -0.1785 -0.2517  0.3209
    1DPPC   NC316441   9.857  13.548   2.496  0.0628  0.1002  0.2726
    1DPPC   PO416442   9.569  13.577   2.853  0.2622  0.2057  0.1106
    1DPPC   GL116443   9.368  13.926   3.136  0.1303 -0.0289 -0.1728
    1DPPC   GL216444   9.665  14.082   3.336  0.0446 -0.2412 -0.0519
    1DPPC   C1A16445   9.140  13.903   3.485 -0.0075 -0.0423  0.2363
    1DPPC   C2A16446   9.063  13.976   3.965 -0.2469 -0.0883 -0.2023
    1DPPC   C3A16447   8.768  14.095   4.334 -0.0477 -0.0585  0.1016
    1DPPC   C4A16448   8.696  14.345   4.701  0.0471 -0.4076  0.1346
    1DPPC   C1B16449   9.677  13.855   3.693  0.1886 -0.2636  0.3466
    1DPPC   C2B16450   9.523  13.908   4.068 -0.1339  0.1511  0.0892
    1DPPC   C3B16451   9.485  14.104   4.468  0.0651 -0.0681 -0.3992
    1DPPC   C4B16452   9.600  14.456   4.698  0.0612  0.0036 -0.2130
    1DPPC   NC316453   2.012  18.346   1.694  0.0953  0.0741  0.0915
    1DPPC   PO416454   1.520  18.376   1.584  0.2910 -0.0047 -0.0062
    1DPPC   GL116455   1.475  18.659   1.917  0.2301  0.2369  0.2183
    1DPPC   GL216456   1.784  18.811   2.108 -0.1941 -0.2898 -0.1302
    1DPPC   C1A16457   1.450  18.449   2.360 -0.1438  0.0735 -0.0295
    1DPPC   C2A16458   1.567  18.509   2.848  0.3207  0.0578 -0.0274
    1DPPC   C3A16459   1.593  18.451   3.252 -0.2202 -0.2420  0.2863
    1DPPC   C4A16460   1.448  18.460   3.616  0.0064 -0.2077 -0.1488
    1DPPC   C1B16461   1.827  18.750   2.514 -0.0452 -0.3126  0.0573
    1DPPC   C2B16462   1.982  18.689   2.967  0.0978 -0.1230 -0.0825
    1DPPC   C3B16463   2.035  18.655   3.434  0.0927  0.2217  0.1299
    1DPPC   C4B16464   2.250  18.673   3.770  0.0722  0.4692 -0.0575
    1DPPC   NC316465   0.636  29.885   3.702  0.3946  0.2413  0.2058
    1DPPC   PO416466   0.839   0.003   3.720 -0.0455 -0.0553 -0.1425
    1DPPC   GL116467   0.775  30.219   4.078  0.1942  0.0644  0.3121
    1DPPC   GL216468   1.036  29.943   4.029  0.2194  0.1258 -0.1005
    1DPPC   C1A16469   0.762  30.135   4.544  0.0706  0.3014  0.0593
    1DPPC   C2A16470   0.942  29.922   4.959 -0.1098 -0.3031  0.2557
    1DPPC   C3A16471   1.105  29.856   5.326 -0.1288 -0.1299  0.1094
    1DPPC   C4A16472   0.962  29.805   5.780 -0.2834  0.1594 -0.3099
    1DPPC   C1B16473   0.829  29.605   4.306 -0.3247  0.0894 -0.0112
    1DPPC   C2B16474   0.896  29.513   4.774  0.1111  0.0345 -0.2609
    1DPPC   C3B16475   1.275  29.519   4.981 -0.1114 -0.1781  0.1863
    1DPPC   C4B16476   1.653  29.562   4.806 -0.1023 -0.1863 -0.0312
    1DPPC   NC316477   6.122  12.473   2.196 -0.0745 -0.1886 -0.0790
    1DPPC   PO416478   5.943  12.892   2.176  0.2496  0.0321 -0.0026
    1DPPC   GL116479   5.874  12.870   2.642  0.0763  0.2831  0.0786
    1DPPC   GL216480   5.634  12.666   2.802 -0.1246  0.0589 -0.1021
    1DPPC   C1A16481   6.010  12.841   3.089  0.2890 -0.0196 -0.0939
    1DPPC   C2A16482   5.973  12.878   3.498  0.1676 -0.0231  0.0167
    1DPPC   C3A16483   5.976  12.756   3.931  0.0016 -0.0919 -0.0589
    1DPPC   C4A16484   6.130  12.681   4.264  0.1033 -0.0668 -0.1341
    1DPPC   C1B16485   5.504  12.956   3.151  0.0383  0.2172 -0.0434
    1DPPC   C2B16486   5.471  13.065   3.552 -0.1191  0.0691 -0.1059
    1DPPC   C3B16487   5.502  13.016   3.977 -0.2926  0.0004 -0.3427
    1DPPC   C4B16488   5.646  12.970   4.337 -0.0156 -0.0136 -0.0305
    1DPPC   NC316489   3.983  18.315   1.672 -0.3077 -0.2559  0.2138
    1DPPC   PO416490   4.115  18.677   1.433 -0.3010  0.5565 -0.0691
    1DPPC   GL116491   4.226  18.671   1.938  0.0988 -0.0667  0.0678
    1DPPC   GL216492   3.899  18.528   2.097 -0.0320  0.2754 -0.0059
    1DPPC   C1A16493   4.337  18.544   2.395 -0.0085  0.3080 -0.0610
    1DPPC   C2A16494   4.254  18.685   2.786  0.2181  0.0591 -0.4065
    1DPPC   C3A16495   4.257  18.789   3.282 -0.0646  0.0371 -0.2743
    1DPPC   C4A16496   4.381  19.003   3.686 -0.4124  0.3345  0.0939
    1DPPC   C1B16497   3.870  18.631   2.453 -0.1152  0.0228 -0.3507
    1DPPC   C2B16498   3.771  18.727   2.861 -0.2915 -0.4738 -0.1299
    1DPPC   C3B16499   3.746  18.887   3.286 -0.1454 -0.3062 -0.1247
    1DPPC   C4B16500   3.913  19.091   3.537  0.0803 -0.2296  0.1520
    1DPPC   NC316501  25.871  17.714   1.822 -0.0249 -0.1296 -0.0018
    1DPPC   PO416502  25.523  17.555   2.038 -0.2720  0.0119  0.0558
    1DPPC   GL116503  25.188  17.443   2.351 -0.0330 -0.1277  0.4522
    1DPPC   GL216504  25.316  17.159   2.553  0.0183 -0.1041 -0.1344
    1DPPC   C1A16505  25.072  17.596   2.764 -0.0838  0.1205 -0.0409
    1DPPC   C2A16506  25.222  17.473   3.179 -0.0404 -0.2783  0.2092
    1DPPC   C3A16507  25.257  17.524   3.531 -0.0628  0.0663  0.0162
    1DPPC   C4A16508  24.945  17.592   3.865  0.1571  0.4128 -0.0879
    1DPPC   C1B16509  25.137  16.988   2.967 -0.2376 -0.2435 -0.0514
    1DPPC   C2B16510  25.103  17.021   3.471  0.0953  0.2503  0.1011
    1DPPC   C3B16511  25.136  17.065   3.966 -0.1598 -0.2856 -0.0196
    1DPPC   C4B16512  25.124  16.943   4.328  0.1375 -0.2675 -0.1400
    1DPPC   NC316513  28.214  13.014   2.100 -0.1383 -0.1582 -0.0043
    1DPPC   PO416514  28.572  12.919   2.248  0.0108  0.2763  0.3244
    1DPPC   GL116515  28.737  12.991   2.624  0.1952  0.1721 -0.0837
    1DPPC   GL216516  28.935  13.247   2.573 -0.0012 -0.0196  0.0029
    1DPPC   C1A16517  28.998  12.747   2.879 -0.0044 -0.0099 -0.1339
    1DPPC   C2A16518  28.965  12.734   3.298 -0.0834 -0.1082 -0.3118
    1DPPC   C3A16519  28.912  12.451   3.576 -0.1387 -0.3399 -0.0793
    1DPPC   C4A16520  28.869  12.505   4.046  0.0059  0.0291  0.0055
    1DPPC   C1B16521  28.855  13.208   3.046  0.0527  0.1645 -0.1132
    1DPPC   C2B16522  28.971  13.149   3.555  0.1042 -0.1052 -0.4566
    1DPPC   C3B16523  29.205  12.804   3.755  0.1102  0.1294 -0.0010
    1DPPC   C4B16524  29.406  12.386   3.751  0.0795  0.2765  0.2559
    1DPPC   NC316525  24.641  14.978   2.417  0.2860  0.1907 -0.1107
    1DPPC   PO416526  24.417  15.474   2.386 -0.0082  0.0083  0.2810
    1DPPC   GL116527  24.142  15.327   2.679 -0.0286 -0.1181  0.0323
    1DPPC   GL216528  23.781  15.241   2.714 -0.0035 -0.0082 -0.1936
    1DPPC   C1A16529  24.114  15.221   3.107 -0.0891 -0.0318 -0.0124
    1DPPC   C2A16530  24.199  15.315   3.537  0.1535 -0.0647 -0.3157
    1DPPC   C3A16531  24.501  15.378   3.876 -0.1124 -0.1755  0.3153
    1DPPC   C4A16532  24.503  15.217   4.253 -0.1967  0.2399 -0.0008
    1DPPC   C1B16533  23.627  15.240   3.099 -0.1718  0.2115  0.0999
    1DPPC   C2B16534  23.711  15.164   3.588 -0.2856  0.2590 -0.1057
    1DPPC   C3B16535  23.990  15.269   3.980 -0.1435 -0.3780  0.0536
    1DPPC   C4B16536  24.056  15.386   4.391 -0.0882  0.1850 -0.2348
    1DPPC   NC316537   7.734  13.092   2.237 -0.0230 -0.4602  0.3466
    1DPPC   PO416538   7.915  13.505   2.325  0.0593  0.1194  0.0853
    1DPPC   GL116539   7.960  13.596   2.742 -0.0389  0.1010 -0.0074
    1DPPC   GL216540   8.287  13.547   2.815 -0.0652  0.0845  0.1324
    1DPPC   C1A16541   7.674  13.596   3.093  0.1570 -0.1223  0.3797
    1DPPC   C2A16542   7.550  13.637   3.494  0.0110 -0.0846 -0.1701
    1DPPC   C3A16543   7.577  13.808   3.946 -0.0144 -0.0579 -0.4207
    1DPPC   C4A16544   7.612  13.911   4.445  0.1652 -0.0223 -0.0503
    1DPPC   C1B16545   8.302  13.546   3.327  0.0110 -0.2466  0.1382
    1DPPC   C2B16546   8.282  13.650   3.755 -0.0595  0.0427 -0.1426
    1DPPC   C3B16547   8.070  13.771   4.147  0.2344  0.1613 -0.0142
    1DPPC   C4B16548   8.028  13.698   4.590  0.1986  0.1790 -0.1202
    1DPPC   NC316549   8.864  13.582   2.734 -0.3792  0.0062 -0.1166
    1DPPC   PO416550   8.686  13.213   2.622 -0.0483  0.2576 -0.0426
    1DPPC   GL116551   8.730  13.296   3.158  0.1111  0.1147 -0.1306
    1DPPC   GL216552   8.915  13.500   3.377  0.1926  0.2399 -0.1756
    1DPPC   C1A16553   8.494  13.195   3.537  0.3766  0.1902  0.2207
    1DPPC   C2A16554   8.351  13.202   3.977  0.0403 -0.2252 -0.0611
    1DPPC   C3A16555   8.143  13.280   4.304  0.1993  0.0743 -0.1056
    1DPPC   C4A16556   7.854  13.243   4.669  0.2043 -0.1491 -0.0576
    1DPPC   C1B16557   8.821  13.556   3.753  0.2152  0.2644  0.3020
    1DPPC   C2B16558   8.633  13.633   4.170 -0.4996  0.0386  0.1330
    1DPPC   C3B16559   8.508  13.731   4.516 -0.0716 -0.1831  0.0088
    1DPPC   C4B16560   8.302  14.019   4.917  0.1722 -0.0559  0.2070
    1DPPC   NC316561  28.380  19.061   1.673  0.1410  0.0748 -0.0150
    1DPPC   PO416562  28.091  19.271   1.889 -0.1687  0.2973 -0.3378
    1DPPC   GL116563  28.128  19.525   2.265  0.0769  0.2509  0.0799
    1DPPC   GL216564  28.270  19.363   2.390  0.1083  0.0787  0.2676
    1DPPC   C1A16565  28.133  19.773   2.716 -0.1088 -0.2330  0.0928
    1DPPC   C2A16566  28.033  19.625   3.112 -0.1238 -0.1418 -0.0338
    1DPPC   C3A16567  27.886  19.474   3.513  0.2843  0.0544 -0.3067
    1DPPC   C4A16568  27.707  19.556   3.883  0.2801  0.2405  0.0521
    1DPPC   C1B16569  28.181  19.277   2.780 -0.0875 -0.1579  0.0378
    1DPPC   C2B16570  28.158  19.107   3.173  0.0466 -0.1071 -0.0373
    1DPPC   C3B16571  28.124  19.013   3.585  0.1386 -0.1317 -0.0536
    1DPPC   C4B16572  28.093  18.769   4.152 -0.0501 -0.2721 -0.0567
    1DPPC   NC316573   2.573  13.830   2.240 -0.1855  0.1784 -0.2753
    1DPPC   PO416574   2.295  13.993   1.921  0.0648  0.2454  0.2730
    1DPPC   GL116575   2.135  14.032   2.250  0.1055 -0.1536 -0.0181
    1DPPC   GL216576   1.947  14.336   2.238  0.1547 -0.0304  0.0590
    1DPPC   C1A16577   2.081  14.028   2.661  0.0954 -0.2400 -0.4545
    1DPPC   C2A16578   1.998  14.021   3.075 -0.0700 -0.2928 -0.3170
    1DPPC   C3A16579   2.024  13.952   3.449  0.0299  0.1702  0.3572
    1DPPC   C4A16580   1.743  14.025   3.817  0.0703 -0.0695 -0.0594
    1DPPC   C1B16581   2.010  14.543   2.676 -0.3577  0.0309  0.2229
    1DPPC   C2B16582   2.165  14.601   3.072 -0.1772 -0.0358 -0.0785
    1DPPC   C3B16583   2.013  14.484   3.409 -0.0893  0.0736 -0.1360
    1DPPC   C4B16584   2.167  14.352   3.832 -0.0410 -0.1491  0.1496
    1DPPC   NC316585   8.468  15.944   2.099  0.1765  0.0691  0.0697
    1DPPC   PO416586   8.253  15.614   2.128 -0.0499  0.1859 -0.0755
    1DPPC   GL116587   8.330  15.377   2.594  0.0765 -0.0475 -0.0591
    1DPPC   GL216588   8.606  15.306   2.726 -0.1546  0.0064  0.0108
    1DPPC   C1A16589   8.211  15.545   2.993  0.2883  0.3858 -0.1758
    1DPPC   C2A16590   8.052  15.732   3.409 -0.0375  0.0402  0.0343
    1DPPC   C3A16591   8.094  15.814   3.822  0.2119  0.1702  0.2896
    1DPPC   C4A16592   8.217  15.945   4.174 -0.0932 -0.3335 -0.2981
    1DPPC   C1B16593   8.625  15.336   3.112 -0.0774  0.0786 -0.3366
    1DPPC   C2B16594   8.672  15.436   3.450 -0.0173 -0.1369  0.0078
    1DPPC   C3B16595   8.585  15.610   3.762  0.0061 -0.1971 -0.2556
    1DPPC   C4B16596   8.631  15.660   4.162 -0.2233 -0.2093  0.1427
    1DPPC   NC316597   2.673  10.414   2.604 -0.1435  0.0158  0.0731
    1DPPC   PO416598   2.295  10.313   2.536  0.0020  0.3562 -0.0248
    1DPPC   GL116599   2.307  10.481   2.988 -0.0579 -0.0262 -0.1025
    1DPPC   GL216600   2.127  10.740   2.961 -0.2792  0.2637  0.1011
    1DPPC   C1A16601   2.452  10.303   3.352 -0.0958 -0.2209  0.0395
    1DPPC   C2A16602   2.436  10.201   3.792 -0.3856  0.3891  0.0501
    1DPPC   C3A16603   2.382  10.141   4.227 -0.0261  0.1106  0.1122
    1DPPC   C4A16604   2.705  10.022   4.579  0.3223  0.0578 -0.1912
    1DPPC   C1B16605   2.263  10.790   3.365 -0.0221 -0.2475 -0.1761
    1DPPC   C2B16606   2.423  10.695   3.714  0.1980 -0.0338 -0.0683
    1DPPC   C3B16607   2.675  10.566   4.115 -0.0318  0.2285 -0.2617
    1DPPC   C4B16608   2.854  10.490   4.552  0.1202  0.0679  0.0310
    1DPPC   NC316609   0.016  10.288   2.861  0.2649  0.0286 -0.0998
    1DPPC   PO416610   0.364  10.392   2.784  0.0289 -0.1215  0.2816
    1DPPC   GL116611   0.408  10.325   3.170  0.3663 -0.3831 -0.0316
    1DPPC   GL216612   0.555  10.094   3.207  0.1534 -0.1273 -0.0278
    1DPPC   C1A16613   0.359  10.482   3.544 -0.0273 -0.2328 -0.2725
    1DPPC   C2A16614   0.299  10.601   4.060  0.2884  0.3365 -0.2272
    1DPPC   C3A16615   0.262  10.540   4.462 -0.1071  0.2110 -0.0462
    1DPPC   C4A16616   0.478  10.369   4.706 -0.2640  0.1372  0.0462
    1DPPC   C1B16617   0.588  10.061   3.703 -0.1529 -0.4344  0.0819
    1DPPC   C2B16618   0.537  10.064   4.229 -0.0061  0.1060  0.2578
    1DPPC   C3B16619   0.665   9.918   4.597 -0.1202  0.1687 -0.0669
    1DPPC   C4B16620   0.806  10.036   4.951 -0.0151 -0.0544  0.0516
    1DPPC   NC316621   5.657  12.474   2.337  0.2745 -0.0534  0.0039
    1DPPC   PO416622   5.493  12.071   2.328 -0.1099 -0.0541  0.0898
    1DPPC   GL116623   5.537  12.153   2.795  0.2306 -0.0756  0.1160
    1DPPC   GL216624   5.603  11.853   2.945 -0.0743 -0.0227 -0.3142
    1DPPC   C1A16625   5.820  12.304   3.098 -0.3793 -0.0640  0.2085
    1DPPC   C2A16626   6.033  12.402   3.413 -0.3240 -0.3680 -0.2855
    1DPPC   C3A16627   5.995  12.310   3.812  0.2097 -0.0660  0.1799
    1DPPC   C4A16628   5.778  12.272   4.156  0.2629 -0.2301  0.1315
    1DPPC   C1B16629   5.613  11.996   3.411 -0.2012 -0.0876 -0.3394
    1DPPC   C2B16630   5.675  11.921   3.796  0.1911  0.1112 -0.2623
    1DPPC   C3B16631   5.900  11.748   4.084 -0.1453 -0.1102  0.1913
    1DPPC   C4B16632   6.052  11.555   4.394 -0.2412  0.2307  0.0663
    1DPPC   NC316633  26.434  14.626   2.422 -0.0459  0.0217 -0.4902
    1DPPC   PO416634  26.863  14.893   2.251  0.2245 -0.0294  0.3452
    1DPPC   GL116635  26.908  14.771   2.639 -0.1850  0.0892  0.2130
    1DPPC   GL216636  26.643  14.964   2.763 -0.0544 -0.1916  0.0915
    1DPPC   C1A16637  27.033  14.627   3.067  0.0532 -0.0337  0.2819
    1DPPC   C2A16638  27.153  14.679   3.448 -0.1639 -0.2469 -0.0547
    1DPPC   C3A16639  27.146  14.703   3.847  0.2330  0.1003  0.1871
    1DPPC   C4A16640  27.114  14.798   4.282 -0.2024 -0.0113  0.1607
    1DPPC   C1B16641  26.823  15.108   3.114  0.1070 -0.3015 -0.3128
    1DPPC   C2B16642  26.813  15.069   3.548 -0.0902  0.2333  0.0029
    1DPPC   C3B16643  26.979  15.320   3.907 -0.1345  0.0316  0.3264
    1DPPC   C4B16644  27.394  15.503   3.952  0.0078 -0.1682  0.0775
    1DPPC   NC316645   9.501  12.576   2.453 -0.0457  0.1657 -0.2027
    1DPPC   PO416646   9.525  12.672   2.817  0.1722  0.1982  0.2375
    1DPPC   GL116647   9.368  12.693   3.191  0.0699 -0.5162 -0.3339
    1DPPC   GL216648   9.221  12.404   3.313 -0.2464 -0.1233 -0.4284
    1DPPC   C1A16649   9.142  13.037   3.368 -0.3447 -0.0525  0.0718
    1DPPC   C2A16650   8.976  13.042   3.755 -0.0363  0.3426  0.0086
    1DPPC   C3A16651   8.825  13.138   4.155  0.0892  0.0976 -0.0986
    1DPPC   C4A16652   8.803  13.320   4.550  0.0319 -0.1091 -0.3185
    1DPPC   C1B16653   9.179  12.567   3.717  0.0608  0.2392  0.0656
    1DPPC   C2B16654   9.026  12.612   4.107  0.0150  0.5741  0.0168
    1DPPC   C3B16655   8.889  12.698   4.491  0.2356  0.1085  0.3132
    1DPPC   C4B16656   8.501  12.972   4.497 -0.0635  0.2792  0.0257
    1DPPC   NC316657   0.076  21.077   2.086 -0.2365  0.3166 -0.1397
    1DPPC   PO416658  30.329  20.713   1.893  0.0002 -0.1102  0.0511
    1DPPC   GL116659  30.247  20.621   2.309  0.2922 -0.0595 -0.0569
    1DPPC   GL216660  30.018  20.441   2.313 -0.0280  0.1036  0.1691
    1DPPC   C1A16661  30.292  20.828   2.755  0.1752 -0.2960  0.0234
    1DPPC   C2A16662  30.093  20.913   3.231  0.1708  0.0849 -0.3580
    1DPPC   C3A16663  30.206  20.881   3.772  0.0448 -0.1011 -0.0415
    1DPPC   C4A16664  30.141  20.999   4.213  0.0467  0.3082 -0.0563
    1DPPC   C1B16665  29.817  20.212   2.612  0.1400 -0.4283 -0.1121
    1DPPC   C2B16666  29.756  20.177   2.991  0.1236 -0.0855 -0.0397
    1DPPC   C3B16667  29.708  20.140   3.459 -0.1741  0.0638 -0.1812
    1DPPC   C4B16668  29.692  20.154   3.852 -0.1400  0.1225 -0.2165
    1DPPC   NC316669  26.677  17.710   1.972 -0.0597  0.0536 -0.1055
    1DPPC   PO416670  27.079  17.901   1.848  0.2318 -0.0912  0.1265
    1DPPC   GL116671  27.234  17.690   2.242 -0.1581 -0.1659 -0.0868
    1DPPC   GL216672  27.349  17.862   2.258 -0.1044  0.1423 -0.0764
    1DPPC   C1A16673  27.235  17.778   2.758 -0.0206  0.1668 -0.0214
    1DPPC   C2A16674  27.198  17.730   3.240  0.3169  0.0113  0.1798
    1DPPC   C3A16675  27.190  17.464   3.660  0.1905  0.0259 -0.1621
    1DPPC   C4A16676  27.219  17.555   4.093 -0.0718 -0.1124  0.0070
    1DPPC   C1B16677  27.272  18.331   2.369 -0.0830  0.4150 -0.0650
    1DPPC   C2B16678  27.154  18.340   2.828 -0.1350  0.1096 -0.0690
    1DPPC   C3B16679  27.232  18.279   3.358 -0.2371 -0.3112  0.3266
    1DPPC   C4B16680  27.301  17.966   3.685  0.0873 -0.1609 -0.0683
    1DPPC   NC316681   2.728  19.769   1.726  0.0879 -0.0670 -0.1750
    1DPPC   PO416682   2.962  20.067   1.708  0.1947  0.0094 -0.0446
    1DPPC   GL116683   2.936  20.099   2.128 -0.1473 -0.0500  0.1239
    1DPPC   GL216684   3.083  20.282   2.307  0.2473 -0.1309  0.0786
    1DPPC   C1A16685   2.778  20.016   2.552  0.1402 -0.0716 -0.1747
    1DPPC   C2A16686   2.805  20.100   2.942  0.3184  0.3720  0.3094
    1DPPC   C3A16687   2.749  19.775   3.280 -0.0592  0.2467 -0.1486
    1DPPC   C4A16688   2.953  19.841   3.690 -0.1441  0.2207 -0.2539
    1DPPC   C1B16689   3.205  20.311   2.685  0.0726  0.1932 -0.0194
    1DPPC   C2B16690   3.142  20.461   3.112 -0.0256 -0.0516 -0.0225
    1DPPC   C3B16691   3.228  20.469   3.504 -0.0465 -0.2718 -0.2763
    1DPPC   C4B16692   3.081  20.343   3.916  0.0961 -0.0243  0.4196
    1DPPC   NC316693   9.095  19.752   2.512 -0.2511 -0.5171 -0.0279
    1DPPC   PO416694   9.569  19.616   2.409 -0.0274 -0.0112  0.3783
    1DPPC   GL116695   9.508  19.669   2.795 -0.2165  0.1258 -0.0144
    1DPPC   GL216696   9.393  19.958   2.856  0.0113 -0.0403  0.2113
    1DPPC   C1A16697   9.368  19.631   3.200  0.2454  0.0969  0.0340
    1DPPC   C2A16698   9.179  19.464   3.523 -0.6205 -0.2029  0.0032
    1DPPC   C3A16699   9.443  19.470   3.849  0.2385  0.1325  0.1169
    1DPPC   C4A16700   9.763  19.444   4.254 -0.1732  0.1046  0.1325
    1DPPC   C1B16701   9.677  20.001   3.190  0.0846 -0.1655 -0.2771
    1DPPC   C2B16702   9.673  20.325   3.535  0.4426  0.1050  0.3046
    1DPPC   C3B16703   9.453  20.371   4.007  0.0357  0.0555 -0.0101
    1DPPC   C4B16704   9.041  20.462   3.847 -0.1416  0.0047  0.2294
    1DPPC   NC316705   0.564  14.078   1.937 -0.1089 -0.2606  0.0467
    1DPPC   PO416706   0.942  14.264   1.752 -0.0492 -0.0529  0.2771
    1DPPC   GL116707   0.893  14.402   2.191 -0.3338  0.1433 -0.0662
    1DPPC   GL216708   1.072  14.598   2.227  0.0441  0.0619 -0.1630
    1DPPC   C1A16709   1.015  14.292   2.632  0.0253  0.0915 -0.1517
    1DPPC   C2A16710   1.047  14.187   3.084 -0.3581 -0.0829  0.1003
    1DPPC   C3A16711   0.992  14.244   3.453 -0.0981  0.0237  0.0295
    1DPPC   C4A16712   0.947  14.282   3.826  0.2269  0.1093 -0.0427
    1DPPC   C1B16713   0.969  14.771   2.615  0.0704 -0.0942  0.0407
    1DPPC   C2B16714   0.888  14.669   3.004  0.0311  0.0818 -0.1141
    1DPPC   C3B16715   0.986  14.713   3.439  0.1705  0.1135 -0.1669
    1DPPC   C4B16716   1.215  14.783   3.878 -0.1117  0.1017  0.1301
    1DPPC   NC316717   3.209  21.219   1.742  0.2030 -0.1514  0.2295
    1DPPC   PO416718   3.649  21.269   1.763  0.2521  0.2046  0.0155
    1DPPC   GL116719   3.800  21.483   2.056  0.2879  0.1537  0.0768
    1DPPC   GL216720   3.493  21.580   2.294  0.0623  0.2322  0.2923
    1DPPC   C1A16721   3.952  21.562   2.458 -0.1741  0.3677  0.0930
    1DPPC   C2A16722   4.276  21.752   2.715 -0.5490 -0.0525 -0.0855
    1DPPC   C3A16723   4.338  22.015   3.009 -0.1482 -0.0268 -0.1200
    1DPPC   C4A16724   4.168  21.924   3.317 -0.0309  0.1032  0.1273
    1DPPC   C1B16725   3.487  21.720   2.666 -0.0921  0.2010 -0.0816
    1DPPC   C2B16726   3.424  21.710   3.183 -0.0437  0.0626 -0.1002
    1DPPC   C3B16727   3.648  21.879   3.422  0.0974  0.1804  0.3261
    1DPPC   C4B16728   3.864  22.134   3.792  0.2069 -0.3073  0.1779
    1DPPC   NC316729  29.747  15.692   2.002 -0.0421 -0.0653  0.0399
    1DPPC   PO416730  30.052  15.309   2.021  0.2081 -0.2621 -0.2127
    1DPPC   GL116731  30.259  15.226   2.391 -0.1255  0.1246  0.0608
    1DPPC   GL216732   0.172  15.230   2.479 -0.0405 -0.0679  0.0565
    1DPPC   C1A16733  30.136  15.278   2.775 -0.4039  0.0568  0.2260
    1DPPC   C2A16734  30.205  15.400   3.229 -0.1077  0.0190 -0.0495
    1DPPC   C3A16735  30.256  15.353   3.612 -0.1263  0.0895 -0.1712
    1DPPC   C4A16736  30.306  15.226   4.024 -0.2528 -0.0569 -0.0167
    1DPPC   C1B16737   0.305  15.399   2.952  0.0151 -0.1813  0.1789
    1DPPC   C2B16738   0.358  15.386   3.367 -0.1691 -0.3654 -0.0171
    1DPPC   C3B16739   0.412  15.373   3.750 -0.1342 -0.1382  0.1501
    1DPPC   C4B16740   0.471  15.248   4.192  0.1475 -0.0163 -0.1378
    1DPPC   NC316741   7.844  12.193   2.366  0.1093 -0.0504  0.7039
    1DPPC   PO416742   7.458  12.073   2.544 -0.1564 -0.0237  0.2424
    1DPPC   GL116743   7.246  12.293   2.853 -0.0404 -0.0273 -0.0906
    1DPPC   GL216744   7.028  12.268   3.119  0.2176  0.0571  0.4815
    1DPPC   C1A16745   7.342  12.650   3.054 -0.1307 -0.3787 -0.1220
    1DPPC   C2A16746   7.385  12.782   3.479  0.2111 -0.0842  0.0223
    1DPPC   C3A16747   7.393  12.966   3.928 -0.2698  0.1003  0.1019
    1DPPC   C4A16748   7.525  12.895   4.326  0.1452  0.0172  0.0446
    1DPPC   C1B16749   7.043  12.403   3.575 -0.0405  0.0041  0.2354
    1DPPC   C2B16750   7.073  12.473   4.031  0.1868 -0.2138 -0.0202
    1DPPC   C3B16751   7.149  12.497   4.446 -0.1933  0.0658 -0.1071
    1DPPC   C4B16752   7.393  12.267   4.680 -0.1724 -0.2611 -0.2969
    1DPPC   NC316753   2.480  12.673   2.294  0.0615 -0.1180  0.0977
    1DPPC   PO416754   2.784  12.513   2.453  0.0836  0.1285  0.0893
    1DPPC   GL116755   2.954  12.481   2.821 -0.1408 -0.0729 -0.0867
    1DPPC   GL216756   3.295  12.359   2.752  0.0561  0.1322  0.0849
    1DPPC   C1A16757   2.859  12.655   3.228  0.3424 -0.1070 -0.1512
    1DPPC   C2A16758   2.921  12.834   3.669  0.0532  0.1827  0.0629
    1DPPC   C3A16759   2.859  12.860   4.174 -0.0643  0.0818 -0.2388
    1DPPC   C4A16760   2.577  12.892   4.545  0.0164 -0.0218 -0.0638
    1DPPC   C1B16761   3.254  12.280   3.225  0.0936 -0.0013  0.1163
    1DPPC   C2B16762   3.187  12.322   3.574  0.0431 -0.1110 -0.1265
    1DPPC   C3B16763   3.245  12.517   4.083  0.1243 -0.1473  0.2320
    1DPPC   C4B16764   3.110  12.477   4.483  0.0064  0.1802  0.1244
    1DPPC   NC316765  29.747  24.820   2.282  0.1947  0.0555  0.0364
    1DPPC   PO416766  29.601  24.421   2.567 -0.1506 -0.2762 -0.1198
    1DPPC   GL116767  29.577  24.554   2.909  0.2478 -0.0416  0.0889
    1DPPC   GL216768  29.838  24.422   3.130  0.1038 -0.0847  0.0547
    1DPPC   C1A16769  29.185  24.811   3.184 -0.0537  0.2324 -0.3103
    1DPPC   C2A16770  29.022  24.871   3.652  0.2679 -0.3059 -0.3159
    1DPPC   C3A16771  28.737  24.633   3.848 -0.1330 -0.0089  0.0796
    1DPPC   C4A16772  28.531  24.419   4.134 -0.0929 -0.2652 -0.0338
    1DPPC   C1B16773  29.679  24.348   3.454  0.3695  0.3009  0.0406
    1DPPC   C2B16774  29.582  24.267   3.897 -0.1887 -0.0244 -0.0032
    1DPPC   C3B16775  29.535  24.096   4.317  0.0892  0.3234 -0.2921
    1DPPC   C4B16776  29.330  23.887   4.651  0.1107 -0.0885  0.2982
    1DPPC   NC316777  29.351  18.572   1.235  0.0546  0.1064 -0.1743
    1DPPC   PO416778  29.274  18.453   1.705 -0.0144 -0.0227 -0.1208
    1DPPC   GL116779  29.244  18.287   2.090  0.1466  0.0471  0.1230
    1DPPC   GL216780  29.204  18.578   2.408  0.0112  0.2742  0.2134
    1DPPC   C1A16781  29.304  18.036   2.466 -0.0643 -0.0210  0.0078
    1DPPC   C2A16782  29.392  17.949   2.909  0.0373 -0.2815  0.0563
    1DPPC   C3A16783  29.391  17.933   3.357  0.2010 -0.0609 -0.0849
    1DPPC   C4A16784  29.161  18.029   3.736 -0.1892 -0.0376  0.0096
    1DPPC   C1B16785  29.222  18.432   2.773  0.1987 -0.0548  0.0715
    1DPPC   C2B16786  29.256  18.464   3.196 -0.1472 -0.1691 -0.8318
    1DPPC   C3B16787  29.340  18.460   3.630 -0.3568  0.1150  0.1144
    1DPPC   C4B16788  29.476  18.343   4.016  0.0551 -0.0129  0.0876
    1DPPC   NC316789   3.544  17.485   1.298  0.1197  0.1989  0.2208
    1DPPC   PO416790   3.599  17.624   1.712  0.0351  0.3281 -0.0829
    1DPPC   GL116791   3.806  17.380   2.072  0.0844 -0.2647 -0.3008
    1DPPC   GL216792   3.784  16.940   2.258  0.1299 -0.1593  0.1850
    1DPPC   C1A16793   3.853  17.353   2.533 -0.0507 -0.0457 -0.1679
    1DPPC   C2A16794   3.841  17.313   2.922 -0.2165  0.0975 -0.1284
    1DPPC   C3A16795   3.935  17.459   3.333 -0.1450 -0.2536  0.1105
    1DPPC   C4A16796   3.744  17.687   3.692 -0.1611 -0.0864  0.2098
    1DPPC   C1B16797   3.947  16.828   2.576 -0.1358  0.2180 -0.3155
    1DPPC   C2B16798   3.998  16.766   3.052  0.1960  0.0657  0.1248
    1DPPC   C3B16799   3.861  16.580   3.487 -0.3054 -0.0676 -0.1867
    1DPPC   C4B16800   3.709  16.596   3.926 -0.2776 -0.0893 -0.1572
    1DPPC   NC316801  25.420  22.983   2.410  0.2335 -0.1626  0.0142
    1DPPC   PO416802  25.689  23.134   2.560 -0.1975 -0.0193 -0.0547
    1DPPC   GL116803  25.750  22.929   2.904 -0.0716 -0.0313  0.0342
    1DPPC   GL216804  25.498  22.890   2.936 -0.2440 -0.2457 -0.2944
    1DPPC   C1A16805  25.869  22.636   3.236 -0.1877  0.2998 -0.0614
    1DPPC   C2A16806  26.074  22.420   3.459 -0.0622 -0.2213 -0.0251
    1DPPC   C3A16807  26.214  22.590   3.883  0.0064  0.0290 -0.0142
    1DPPC   C4A16808  26.431  22.430   4.282  0.1718  0.1723  0.4087
    1DPPC   C1B16809  25.579  23.081   3.370  0.0390 -0.2652  0.0740
    1DPPC   C2B16810  25.847  22.890   3.697 -0.0384 -0.0186 -0.0278
    1DPPC   C3B16811  25.791  22.936   4.214 -0.2360 -0.0724  0.1989
    1DPPC   C4B16812  26.008  22.629   4.434 -0.0459 -0.2896  0.2119
    1DPPC   NC316813  28.146  11.224   2.222  0.0052 -0.0892 -0.0144
    1DPPC   PO416814  27.919  11.564   2.424  0.0340 -0.0092 -0.0426
    1DPPC   GL116815  28.075  11.816   2.748 -0.1281  0.2124 -0.2485
    1DPPC   GL216816  27.846  12.058   2.770 -0.1398 -0.0165  0.0076
    1DPPC   C1A16817  27.975  11.774   3.169 -0.0956 -0.3556 -0.1999
    1DPPC   C2A16818  27.967  11.966   3.521  0.1366 -0.1302 -0.0953
    1DPPC   C3A16819  27.977  12.094   3.930  0.2520 -0.1263  0.1322
    1DPPC   C4A16820  27.964  12.196   4.437  0.4241 -0.0257 -0.0141
    1DPPC   C1B16821  27.563  12.022   3.115  0.3083  0.0637  0.0475
    1DPPC   C2B16822  27.449  12.079   3.490  0.1891 -0.1305  0.0662
    1DPPC   C3B16823  27.299  12.217   3.791  0.2300 -0.0159 -0.0814
    1DPPC   C4B16824  27.177  12.348   4.168 -0.0337  0.0907 -0.1767
    1DPPC   NC316825  29.861  10.371   2.589  0.2977 -0.0178 -0.0537
    1DPPC   PO416826  29.919  10.013   2.814 -0.0403  0.2427  0.2839
    1DPPC   GL116827  30.096  10.081   3.276  0.0890  0.2644 -0.0611
    1DPPC   GL216828  30.136  10.391   3.309  0.1208  0.0526  0.2890
    1DPPC   C1A16829  30.333  10.032   3.615  0.1009 -0.0104  0.0363
    1DPPC   C2A16830   0.069  10.122   4.054  0.0673  0.0881 -0.0105
    1DPPC   C3A16831   0.136   9.960   4.481 -0.2067 -0.1448 -0.0976
    1DPPC   C4A16832   0.098   9.744   4.856  0.1836 -0.0343 -0.1711
    1DPPC   C1B16833  30.215  10.488   3.769 -0.1704 -0.2120  0.0263
    1DPPC   C2B16834  30.118  10.444   4.229  0.4348 -0.1567 -0.0064
    1DPPC   C3B16835  30.204  10.317   4.627  0.1161  0.1164  0.3275
    1DPPC   C4B16836   0.115  10.185   5.053 -0.0871 -0.0709 -0.1644
    1DPPC   NC316837   0.431  16.810   1.675  0.1056 -0.0162  0.1613
    1DPPC   PO416838   0.645  16.850   2.107 -0.1669 -0.0801  0.0787
    1DPPC   GL116839   0.425  16.956   2.419  0.2555 -0.1595  0.0251
    1DPPC   GL216840   0.406  16.627   2.535  0.0762  0.2572 -0.0287
    1DPPC   C1A16841   0.372  17.129   2.785  0.3313  0.1728 -0.1572
    1DPPC   C2A16842   0.246  16.998   3.233 -0.2935  0.2830 -0.0229
    1DPPC   C3A16843   0.339  16.984   3.696  0.0271 -0.0249 -0.2956
    1DPPC   C4A16844   0.543  17.132   4.072  0.1840 -0.2495 -0.2601
    1DPPC   C1B16845   0.547  16.701   2.911 -0.0119  0.0198 -0.0174
    1DPPC   C2B16846   0.585  16.647   3.301 -0.3150 -0.0496 -0.0377
    1DPPC   C3B16847   0.635  16.590   3.716 -0.1060  0.1162  0.1245
    1DPPC   C4B16848   0.380  16.627   4.125 -0.0793 -0.2535 -0.0852
    1DPPC   NC316849   5.361   6.883   3.010 -0.3761  0.0605 -0.2440
    1DPPC   PO416850   5.548   7.278   3.112 -0.0811  0.1995  0.0274
    1DPPC   GL116851   5.395   7.419   3.510 -0.0118 -0.3149 -0.0429
    1DPPC   GL216852   5.584   7.651   3.697  0.0444 -0.0121  0.0598
    1DPPC   C1A16853   5.188   7.283   4.024  0.1480  0.0502  0.0654
    1DPPC   C2A16854   5.036   7.518   4.356  0.1495 -0.0517 -0.0496
    1DPPC   C3A16855   4.741   7.798   4.589 -0.0056  0.0986 -0.2341
    1DPPC   C4A16856   4.411   8.016   4.754  0.0485  0.2961  0.3759
    1DPPC   C1B16857   5.457   7.751   4.154  0.0700 -0.0410  0.0207
    1DPPC   C2B16858   5.209   7.979   4.499 -0.0163  0.0080 -0.2073
    1DPPC   C3B16859   5.031   8.280   4.608  0.5128  0.0690  0.0568
    1DPPC   C4B16860   4.949   8.714   4.616 -0.0743 -0.0914  0.2414
    1DPPC   NC316861  26.915  16.849   1.787  0.1441 -0.0437 -0.2467
    1DPPC   PO416862  26.661  17.150   1.806  0.0006  0.1127 -0.0007
    1DPPC   GL116863  26.736  17.190   2.274  0.1413  0.0232  0.1938
    1DPPC   GL216864  26.803  16.927   2.277  0.1003  0.0730  0.3932
    1DPPC   C1A16865  26.851  17.460   2.515 -0.1855 -0.0366 -0.1790
    1DPPC   C2A16866  26.804  17.529   2.887  0.0661  0.1396  0.1482
    1DPPC   C3A16867  26.721  17.474   3.306 -0.1294 -0.1138 -0.0321
    1DPPC   C4A16868  26.713  17.323   3.710  0.0302  0.0290 -0.1006
    1DPPC   C1B16869  26.679  16.942   2.690 -0.1748  0.1008 -0.0402
    1DPPC   C2B16870  26.587  16.975   3.077  0.0103 -0.3009  0.1586
    1DPPC   C3B16871  26.470  16.942   3.450  0.0657 -0.0482 -0.1150
    1DPPC   C4B16872  26.466  16.949   3.972  0.0031  0.2833 -0.2753
    1DPPC   NC316873  29.698  25.491   2.869 -0.0097 -0.2861  0.1356
    1DPPC   PO416874  30.071  25.599   3.008 -0.2442  0.3029 -0.1139
    1DPPC   GL116875  30.295  25.487   3.375 -0.0362 -0.1549  0.0772
    1DPPC   GL216876   0.012  25.176   3.382  0.2245 -0.0428  0.1596
    1DPPC   C1A16877  30.292  25.372   3.870  0.2656  0.2127  0.0364
    1DPPC   C2A16878  30.291  24.979   4.123  0.3361 -0.0701 -0.1449
    1DPPC   C3A16879   0.004  24.565   4.207  0.1342 -0.0331  0.1319
    1DPPC   C4A16880   0.166  24.453   4.481 -0.2645 -0.2354 -0.0810
    1DPPC   C1B16881  30.097  24.895   3.632 -0.0511  0.0153 -0.0243
    1DPPC   C2B16882  29.874  24.711   4.044 -0.3824 -0.1407 -0.0270
    1DPPC   C3B16883  29.970  24.775   4.494 -0.2132  0.0180 -0.1397
    1DPPC   C4B16884  29.786  24.674   4.830 -0.0694  0.3414 -0.0048
    1DPPC   NC316885   0.627  24.418   2.645 -0.0448  0.4099  0.1163
    1DPPC   PO416886   1.110  24.376   2.742 -0.2493  0.1555 -0.2591
    1DPPC   GL116887   1.060  24.259   3.074  0.1019  0.0099  0.3719
    1DPPC   GL216888   1.294  24.107   3.252 -0.0528  0.2751  0.0746
    1DPPC   C1A16889   0.853  24.091   3.483 -0.0888  0.2416 -0.1540
    1DPPC   C2A16890   0.847  23.976   3.931  0.0533 -0.0045  0.2761
    1DPPC   C3A16891   0.886  23.646   4.220  0.0046  0.1864 -0.0475
    1DPPC   C4A16892   0.959  23.516   4.634  0.0959 -0.0371  0.1309
    1DPPC   C1B16893   1.359  24.111   3.674  0.1694  0.0315 -0.0835
    1DPPC   C2B16894   1.383  23.944   4.152 -0.0528 -0.2879  0.2664
    1DPPC   C3B16895   1.239  23.927   4.465  0.2081  0.0009 -0.1416
    1DPPC   C4B16896   1.118  24.299   4.771 -0.1448  0.0811  0.1350
    1DPPC   NC316897   4.519  14.713   1.839  0.1413  0.0282  0.0154
    1DPPC   PO416898   4.488  14.723   2.318  0.1613 -0.1762  0.0559
    1DPPC   GL116899   4.507  14.645   2.711 -0.2150  0.0620  0.0537
    1DPPC   GL216900   4.847  14.425   2.712 -0.2595 -0.0547 -0.4471
    1DPPC   C1A16901   4.447  14.875   3.004 -0.1676  0.0381 -0.1916
    1DPPC   C2A16902   4.332  14.773   3.432 -0.3419 -0.0771  0.1289
    1DPPC   C3A16903   4.311  14.636   3.810  0.2456  0.3083  0.1190
    1DPPC   C4A16904   4.369  14.452   4.260  0.0132  0.1974 -0.2948
    1DPPC   C1B16905   4.750  14.421   3.066 -0.2126  0.0775 -0.4230
    1DPPC   C2B16906   4.703  14.304   3.458 -0.1777  0.3117 -0.1444
    1DPPC   C3B16907   4.589  14.179   3.802 -0.1620  0.0848  0.2893
    1DPPC   C4B16908   4.109  14.022   4.005  0.3669 -0.0115  0.0626
    1DPPC   NC316909  27.815  25.509   2.953 -0.0013 -0.1490 -0.2801
    1DPPC   PO416910  28.059  25.028   2.852  0.1131 -0.2471 -0.1134
    1DPPC   GL116911  28.269  25.057   3.173 -0.0724  0.2147 -0.0410
    1DPPC   GL216912  28.682  25.129   3.164 -0.0849  0.4374  0.2262
    1DPPC   C1A16913  28.330  24.988   3.633  0.1538 -0.0399 -0.2733
    1DPPC   C2A16914  28.208  25.284   3.965 -0.0778 -0.0745 -0.2931
    1DPPC   C3A16915  28.254  25.410   4.357  0.2506 -0.0119  0.1602
    1DPPC   C4A16916  27.996  25.315   4.669  0.1238 -0.1660  0.0722
    1DPPC   C1B16917  28.684  24.722   3.284  0.0426 -0.2861 -0.2470
    1DPPC   C2B16918  28.342  24.508   3.501 -0.2582  0.2560 -0.0327
    1DPPC   C3B16919  28.150  24.310   3.837 -0.2643  0.3192  0.1265
    1DPPC   C4B16920  28.098  24.056   4.250 -0.4482  0.1843 -0.0067
    1DPPC   NC316921  29.075  16.622   1.641  0.0032 -0.1978  0.0157
    1DPPC   PO416922  29.118  16.909   2.048 -0.0461 -0.2182  0.2821
    1DPPC   GL116923  29.081  16.820   2.476  0.0806 -0.0607 -0.3337
    1DPPC   GL216924  28.782  16.631   2.525  0.3779  0.4120  0.0645
    1DPPC   C1A16925  29.159  16.970   2.875  0.1324  0.0049 -0.1459
    1DPPC   C2A16926  29.202  17.099   3.295  0.0472 -0.0479 -0.2383
    1DPPC   C3A16927  29.444  16.995   3.722  0.4084 -0.0622 -0.0101
    1DPPC   C4A16928  29.710  16.739   3.861 -0.0704 -0.3324  0.0171
    1DPPC   C1B16929  28.854  16.539   3.009  0.2085  0.1555  0.1750
    1DPPC   C2B16930  28.814  16.686   3.390 -0.1725  0.0139 -0.0679
    1DPPC   C3B16931  28.979  16.795   3.801  0.4486  0.0180 -0.1404
    1DPPC   C4B16932  28.981  17.060   4.189 -0.0706  0.0590  0.0777
    1DPPC   NC316933  27.283  16.437   1.705  0.0841  0.1865  0.2496
    1DPPC   PO416934  27.397  16.190   2.020 -0.0347 -0.1082 -0.0235
    1DPPC   GL116935  27.449  16.396   2.370 -0.0178 -0.1561  0.1466
    1DPPC   GL216936  27.301  16.697   2.356  0.1089 -0.1228 -0.0134
    1DPPC   C1A16937  27.514  16.353   2.832  0.2175 -0.3488  0.0608
    1DPPC   C2A16938  27.545  16.302   3.274  0.1270  0.1271 -0.0056
    1DPPC   C3A16939  27.705  16.245   3.712  0.0412 -0.2300 -0.0293
    1DPPC   C4A16940  27.775  16.287   4.129 -0.3588 -0.3647  0.1050
    1DPPC   C1B16941  27.028  16.610   2.615 -0.0758 -0.2115  0.0036
    1DPPC   C2B16942  27.070  16.617   3.043  0.0044  0.0851 -0.3114
    1DPPC   C3B16943  27.201  16.536   3.558 -0.0546 -0.0398 -0.1515
    1DPPC   C4B16944  27.436  16.580   3.944 -0.0120 -0.0473  0.1844
    1DPPC   NC316945   4.464  23.415   2.376 -0.0662 -0.1802  0.3819
    1DPPC   PO416946   4.302  23.859   2.453  0.1822 -0.1896 -0.1617
    1DPPC   GL116947   4.190  24.002   2.790  0.4133 -0.1587 -0.2438
    1DPPC   GL216948   3.928  23.853   2.984 -0.2810  0.0078  0.0830
    1DPPC   C1A16949   4.302  23.938   3.275 -0.3712 -0.2327  0.1009
    1DPPC   C2A16950   4.346  23.566   3.673 -0.0626 -0.1010  0.0225
    1DPPC   C3A16951   4.334  23.239   3.970 -0.2698  0.1272 -0.0480
    1DPPC   C4A16952   4.075  22.780   4.000 -0.1583 -0.3067  0.1199
    1DPPC   C1B16953   3.850  23.666   3.399  0.1040 -0.3557  0.3227
    1DPPC   C2B16954   3.886  23.430   3.822  0.2453 -0.1106  0.1027
    1DPPC   C3B16955   3.968  23.200   4.274  0.0888  0.0496 -0.0554
    1DPPC   C4B16956   4.214  23.153   4.641  0.1567  0.0730 -0.1846
    1DPPC   NC316957   9.760  15.328   1.891  0.0941 -0.1074 -0.1318
    1DPPC   PO416958   9.635  15.317   2.337 -0.0002 -0.1340 -0.2187
    1DPPC   GL116959   9.708  15.473   2.805 -0.1106  0.2662  0.1042
    1DPPC   GL216960   9.531  15.738   2.727  0.0318 -0.0661  0.0386
    1DPPC   C1A16961   9.689  15.295   3.252 -0.0298  0.0230 -0.1493
    1DPPC   C2A16962   9.812  15.006   3.570 -0.1098  0.1341  0.2998
    1DPPC   C3A16963   9.680  14.558   3.465  0.0337  0.0318  0.1239
    1DPPC   C4A16964   9.405  14.307   3.797 -0.0745  0.1813 -0.0977
    1DPPC   C1B16965   9.390  15.901   3.147  0.2575  0.0313  0.1235
    1DPPC   C2B16966   9.513  16.099   3.570 -0.0082 -0.1093 -0.1705
    1DPPC   C3B16967   9.595  15.940   3.990 -0.1151 -0.0645 -0.0077
    1DPPC   C4B16968   9.723  15.594   4.248 -0.1566 -0.2044  0.0305
    1DPPC   NC316969  30.286  10.846   2.098 -0.2425 -0.2570 -0.0872
    1DPPC   PO416970   0.053  10.703   2.527  0.1360  0.0736  0.1952
    1DPPC   GL116971   0.105  10.739   3.026 -0.2007  0.0179  0.0322
    1DPPC   GL216972   0.437  10.804   3.109  0.0070  0.1298 -0.0374
    1DPPC   C1A16973   0.046  10.878   3.543  0.3323 -0.0128  0.0774
    1DPPC   C2A16974  30.331  10.997   4.023  0.0755  0.2558 -0.2652
    1DPPC   C3A16975  30.295  10.891   4.411 -0.2787  0.1244 -0.0492
    1DPPC   C4A16976  30.058  10.839   4.745  0.0386  0.0337  0.1703
    1DPPC   C1B16977   0.615  10.897   3.475  0.0535  0.0620 -0.3493
    1DPPC   C2B16978   0.540  10.961   3.757  0.1484  0.1610 -0.0591
    1DPPC   C3B16979   0.508  11.109   4.084 -0.0395  0.0912  0.2302
    1DPPC   C4B16980   0.436  11.067   4.524 -0.3171 -0.0047 -0.0159
    1DPPC   NC316981  28.808  15.634   2.162 -0.0461 -0.3817 -0.3135
    1DPPC   PO416982  28.732  15.892   1.939 -0.0494 -0.0233  0.1808
    1DPPC   GL116983  28.804  16.093   2.400 -0.2818  0.0329  0.3482
    1DPPC   GL216984  28.528  15.875   2.528 -0.2502 -0.3630 -0.0244
    1DPPC   C1A16985  28.937  16.018   2.784  0.2248 -0.0582 -0.2076
    1DPPC   C2A16986  29.097  16.043   3.069 -0.1912  0.0494 -0.4485
    1DPPC   C3A16987  28.987  16.145   3.436  0.3828  0.2755 -0.4963
    1DPPC   C4A16988  29.036  15.874   3.852 -0.0487 -0.0027  0.1428
    1DPPC   C1B16989  28.457  15.693   2.846  0.3011 -0.1119  0.4331
    1DPPC   C2B16990  28.534  15.767   3.296  0.5470 -0.0044  0.0017
    1DPPC   C3B16991  28.630  15.823   3.651  0.1011 -0.1877  0.1664
    1DPPC   C4B16992  28.554  15.939   4.069 -0.0990 -0.1752 -0.0080
    1DPPC   NC316993   3.582  19.418   1.704 -0.0257  0.2832  0.4440
    1DPPC   PO416994   3.315  19.172   1.732  0.0053  0.1026  0.0501
    1DPPC   GL116995   3.228  19.222   2.152  0.3975  0.0783 -0.0135
    1DPPC   GL216996   3.291  18.918   2.217 -0.5500 -0.0038  0.0401
    1DPPC   C1A16997   3.324  19.308   2.545 -0.2773  0.1870  0.2909
    1DPPC   C2A16998   3.519  19.184   2.895 -0.1402  0.1294 -0.2593
    1DPPC   C3A16999   3.473  19.323   3.361 -0.0219 -0.0388  0.0630
    1DPPC   C4A17000   3.369  19.532   3.753  0.2316 -0.2288  0.3399
    1DPPC   C1B17001   3.274  18.772   2.633 -0.2350 -0.0194 -0.0228
    1DPPC   C2B17002   3.259  18.854   3.127 -0.2171 -0.1269  0.0862
    1DPPC   C3B17003   3.181  18.932   3.489  0.0843  0.1125 -0.0217
    1DPPC   C4B17004   3.499  19.019   3.785 -0.1590  0.0098 -0.2279
    1DPPC   NC317005   6.674  23.325   1.754  0.0907 -0.2516  0.0148
    1DPPC   PO417006   6.393  23.264   2.144  0.1814  0.2703  0.0239
    1DPPC   GL117007   6.326  23.115   2.538 -0.0270 -0.0510 -0.1193
    1DPPC   GL217008   6.606  23.193   2.764 -0.3310 -0.1947 -0.1503
    1DPPC   C1A17009   6.237  22.676   2.693  0.1898 -0.1513  0.1190
    1DPPC   C2A17010   6.431  22.356   2.850 -0.1157 -0.0221  0.0772
    1DPPC   C3A17011   6.568  21.970   3.128 -0.0252 -0.1138 -0.2827
    1DPPC   C4A17012   6.644  21.712   3.435  0.0961  0.1261  0.1324
    1DPPC   C1B17013   6.570  22.923   3.070 -0.2957  0.0960  0.0705
    1DPPC   C2B17014   6.304  22.674   3.234  0.2541  0.1791 -0.3695
    1DPPC   C3B17015   6.322  22.275   3.465 -0.0208  0.0803 -0.1082
    1DPPC   C4B17016   6.509  21.996   3.816 -0.1151  0.0746 -0.2123
    1DPPC   NC317017  27.266  14.731   2.079 -0.2781  0.2127 -0.4440
    1DPPC   PO417018  27.669  14.431   2.152  0.3380 -0.1795 -0.3474
    1DPPC   GL117019  27.945  14.303   2.582 -0.2886 -0.1894 -0.1989
    1DPPC   GL217020  28.226  14.124   2.490  0.2172 -0.0430  0.1013
    1DPPC   C1A17021  27.836  14.125   3.047 -0.2055 -0.0190  0.1906
    1DPPC   C2A17022  28.035  13.952   3.397  0.0025 -0.2057 -0.2658
    1DPPC   C3A17023  28.069  14.156   3.690 -0.0331 -0.0694  0.0925
    1DPPC   C4A17024  28.310  14.241   4.101 -0.0288 -0.3073  0.1827
    1DPPC   C1B17025  28.335  14.266   2.903  0.2954  0.1407 -0.0542
    1DPPC   C2B17026  28.450  14.385   3.442  0.0837 -0.1635  0.0099
    1DPPC   C3B17027  28.718  14.396   3.733  0.0811  0.1729 -0.1830
    1DPPC   C4B17028  28.866  14.454   4.222  0.0711  0.5319  0.2238
    1DPPC   NC317029   0.181  14.552   1.701 -0.0782 -0.2652 -0.0429
    1DPPC   PO417030   0.198  14.403   2.078 -0.1000 -0.1653 -0.0051
    1DPPC   GL117031  30.275  14.404   2.448  0.0365 -0.1830 -0.1337
    1DPPC   GL217032  30.317  14.683   2.621 -0.1030 -0.1712 -0.0630
    1DPPC   C1A17033  30.282  14.322   2.914 -0.1594  0.0732  0.1930
    1DPPC   C2A17034  30.260  14.340   3.466 -0.1475 -0.4325  0.0219
    1DPPC   C3A17035  30.270  14.355   3.903  0.0404 -0.1349 -0.0433
    1DPPC   C4A17036   0.031  14.239   4.296  0.0257  0.0300 -0.1577
    1DPPC   C1B17037   0.083  14.920   3.011  0.0242  0.1149  0.0389
    1DPPC   C2B17038   0.109  14.954   3.400 -0.0622 -0.0076 -0.3923
    1DPPC   C3B17039   0.140  14.764   3.774  0.4409  0.0001  0.1861
    1DPPC   C4B17040   0.133  14.755   4.310 -0.0656 -0.0006 -0.1963
    1DPPC   NC317041  19.146  10.037   2.384 -0.0865  0.3083 -0.0510
    1DPPC   PO417042  18.687  10.167   2.380  0.3314 -0.4622 -0.0137
    1DPPC   GL117043  18.749   9.815   2.663 -0.1331  0.1434 -0.0554
    1DPPC   GL217044  18.561   9.717   2.859  0.2050  0.0187 -0.2233
    1DPPC   C1A17045  18.931   9.451   3.019  0.0657 -0.0042  0.2158
    1DPPC   C2A17046  19.072   9.140   3.304 -0.0155 -0.1275 -0.2024
    1DPPC   C3A17047  19.273   8.789   3.599  0.2110  0.2270  0.2055
    1DPPC   C4A17048  19.128   8.505   4.084  0.1130 -0.1704  0.2541
    1DPPC   C1B17049  18.652   9.780   3.240 -0.3421  0.1806  0.3230
    1DPPC   C2B17050  18.831   9.539   3.564 -0.1107  0.0015  0.0357
    1DPPC   C3B17051  19.173   9.492   3.805  0.2734 -0.1889 -0.0603
    1DPPC   C4B17052  19.484   9.767   3.891  0.4850  0.1643 -0.0412
    1DPPC   NC317053   2.016  21.533   1.919  0.4218  0.0131  0.1065
    1DPPC   PO417054   2.186  21.868   2.194 -0.1059  0.0005 -0.0450
    1DPPC   GL117055   2.011  21.622   2.505 -0.0203  0.2752  0.0278
    1DPPC   GL217056   2.090  21.784   2.779  0.1513 -0.3571 -0.0800
    1DPPC   C1A17057   1.679  21.466   2.836  0.1173  0.1808  0.1339
    1DPPC   C2A17058   1.663  21.337   3.306  0.4696 -0.0777 -0.1603
    1DPPC   C3A17059   1.648  21.225   3.778  0.0290 -0.1131 -0.4499
    1DPPC   C4A17060   1.572  21.614   4.057 -0.0674 -0.0012  0.0912
    1DPPC   C1B17061   1.987  21.721   3.167  0.0526  0.1969 -0.0338
    1DPPC   C2B17062   1.868  21.643   3.623 -0.1598  0.0466 -0.0597
    1DPPC   C3B17063   2.068  21.447   3.993  0.1892 -0.2080  0.1465
    1DPPC   C4B17064   1.990  21.277   4.328  0.1569  0.2155  0.1306
    1DPPC   NC317065  15.880  11.343   3.223  0.3505 -0.0772 -0.0797
    1DPPC   PO417066  15.485  11.021   3.098  0.0976 -0.1732 -0.0910
    1DPPC   GL117067  15.714  10.831   3.368 -0.2991  0.0952 -0.1549
    1DPPC   GL217068  16.116  10.625   3.372  0.0358 -0.1907 -0.2023
    1DPPC   C1A17069  15.705  10.353   3.545  0.2285 -0.4626  0.1257
    1DPPC   C2A17070  15.601  10.045   3.848 -0.2185  0.2114  0.1636
    1DPPC   C3A17071  15.706   9.694   4.082  0.0914  0.0301  0.0382
    1DPPC   C4A17072  16.054   9.675   4.453 -0.0973  0.1145  0.2023
    1DPPC   C1B17073  16.362  10.342   3.616  0.1769 -0.0419 -0.0357
    1DPPC   C2B17074  16.585   9.896   3.932  0.4563  0.3029 -0.1116
    1DPPC   C3B17075  16.663   9.455   3.937  0.0256  0.1822 -0.0591
    1DPPC   C4B17076  16.856   9.082   3.788 -0.2666  0.1385 -0.3167
    1DPPC   NC317077  12.105  24.917   2.659 -0.1499  0.0146  0.3726
    1DPPC   PO417078  11.930  25.372   2.656  0.2821 -0.0080 -0.1901
    1DPPC   GL117079  11.922  25.227   3.057  0.3727  0.2947  0.0479
    1DPPC   GL217080  12.165  25.034   3.140 -0.2462  0.0738 -0.1793
    1DPPC   C1A17081  11.889  25.307   3.469 -0.0519 -0.3129  0.0534
    1DPPC   C2A17082  11.706  25.522   3.679 -0.1542  0.1097 -0.0447
    1DPPC   C3A17083  11.570  25.991   3.797  0.3157 -0.0912  0.0771
    1DPPC   C4A17084  11.402  26.417   3.796 -0.0169  0.2657 -0.0275
    1DPPC   C1B17085  12.392  25.413   3.396 -0.0976  0.1712  0.0432
    1DPPC   C2B17086  12.197  25.690   3.681  0.1721 -0.1817  0.0364
    1DPPC   C3B17087  12.394  25.841   4.072  0.1018  0.1538  0.0652
    1DPPC   C4B17088  12.772  26.142   4.130 -0.1466  0.3260  0.1713
    1DPPC   NC317089   7.846  14.178   2.179  0.0530  0.0717  0.0436
    1DPPC   PO417090   7.392  14.208   2.209  0.1696 -0.3608 -0.1437
    1DPPC   GL117091   7.236  14.205   2.646  0.0098 -0.3008  0.0701
    1DPPC   GL217092   7.097  14.474   2.548  0.0863  0.1455  0.0096
    1DPPC   C1A17093   7.111  14.217   3.018  0.1474 -0.0321  0.2361
    1DPPC   C2A17094   6.807  14.353   3.352  0.0082 -0.3633  0.1170
    1DPPC   C3A17095   6.946  14.365   3.876  0.0207 -0.0101  0.2294
    1DPPC   C4A17096   6.965  14.532   4.326  0.1573 -0.5672 -0.3353
    1DPPC   C1B17097   7.201  14.667   2.880 -0.0367 -0.1072 -0.1358
    1DPPC   C2B17098   7.165  14.696   3.257  0.3232  0.0920  0.1525
    1DPPC   C3B17099   7.089  14.885   3.659  0.1725  0.1012 -0.0775
    1DPPC   C4B17100   6.971  14.970   4.065 -0.1762 -0.0840 -0.1160
    1DPPC   NC317101  28.533  23.363   2.180  0.0906 -0.0599 -0.0625
    1DPPC   PO417102  28.950  23.320   2.472 -0.0808 -0.1844 -0.2065
    1DPPC   GL117103  29.076  23.353   2.837 -0.0767 -0.0024  0.1073
    1DPPC   GL217104  28.861  23.462   3.028 -0.3107 -0.0713  0.0140
    1DPPC   C1A17105  29.422  23.424   3.122 -0.0467  0.2186  0.0923
    1DPPC   C2A17106  29.494  23.436   3.480  0.0574  0.0094  0.0664
    1DPPC   C3A17107  29.543  23.354   3.946 -0.0195  0.2950 -0.1619
    1DPPC   C4A17108  29.614  23.050   4.267 -0.2477  0.0993 -0.1964
    1DPPC   C1B17109  28.975  23.318   3.336  0.2954  0.2745 -0.1367
    1DPPC   C2B17110  29.085  23.283   3.657 -0.2093 -0.0312  0.0407
    1DPPC   C3B17111  29.051  23.152   4.038 -0.0368 -0.3210  0.2357
    1DPPC   C4B17112  29.191  22.856   4.336 -0.1851  0.1120 -0.1053
    1DPPC   NC317113   0.913  11.026   2.051 -0.1440  0.0903 -0.2426
    1DPPC   PO417114   0.857  11.240   2.493  0.2868 -0.0643  0.1050
    1DPPC   GL117115   0.626  11.230   2.895 -0.0759 -0.0686 -0.0980
    1DPPC   GL217116   0.354  11.371   3.011 -0.3209 -0.0172 -0.2659
    1DPPC   C1A17117   0.783  11.329   3.284 -0.1264 -0.2382 -0.1674
    1DPPC   C2A17118   0.721  11.450   3.723 -0.0963  0.1084  0.1871
    1DPPC   C3A17119   0.531  11.647   4.195 -0.2639  0.0112 -0.0814
    1DPPC   C4A17120   0.092  11.449   4.398  0.1521  0.4096 -0.1406
    1DPPC   C1B17121   0.286  11.297   3.439 -0.1423  0.0780  0.2677
    1DPPC   C2B17122   0.206  11.387   3.796  0.2561 -0.3532 -0.1359
    1DPPC   C3B17123  30.318  11.739   4.033 -0.2797  0.4002  0.4104
    1DPPC   C4B17124  30.194  12.130   4.060 -0.0179 -0.1138 -0.1201
    1DPPC   NC317125  28.028   7.533   3.187 -0.1111  0.1874 -0.0611
    1DPPC   PO417126  28.252   7.566   2.820 -0.0485  0.1486  0.1623
    1DPPC   GL117127  28.557   7.710   3.041  0.0351 -0.3053 -0.0843
    1DPPC   GL217128  28.468   7.483   3.370  0.0294  0.0524  0.0283
    1DPPC   C1A17129  28.931   7.689   3.451  0.1456  0.0815  0.1168
    1DPPC   C2A17130  28.792   7.717   3.952 -0.0265 -0.0485  0.5169
    1DPPC   C3A17131  28.772   7.737   4.452  0.0434 -0.5848  0.1470
    1DPPC   C4A17132  28.430   7.859   4.613  0.0180 -0.0047 -0.1051
    1DPPC   C1B17133  28.256   7.593   3.833 -0.1434  0.0665 -0.1876
    1DPPC   C2B17134  28.367   7.428   4.220 -0.0764  0.3442  0.1557
    1DPPC   C3B17135  28.590   7.230   4.621  0.3689 -0.1115  0.1702
    1DPPC   C4B17136  28.906   7.112   4.983 -0.2433 -0.1710 -0.0277
    1DPPC   NC317137  25.688  15.097   2.292  0.1160  0.2813  0.4328
    1DPPC   PO417138  25.262  14.990   2.362  0.0960 -0.2378  0.0425
    1DPPC   GL117139  25.433  15.167   2.721 -0.1019  0.0133  0.1980
    1DPPC   GL217140  25.409  15.022   3.065 -0.3830 -0.1371 -0.0861
    1DPPC   C1A17141  25.344  15.485   3.058 -0.0045  0.2450  0.1081
    1DPPC   C2A17142  25.397  15.620   3.465  0.0549 -0.3212 -0.2134
    1DPPC   C3A17143  25.394  15.624   3.948  0.0033  0.0029  0.3151
    1DPPC   C4A17144  25.550  15.978   4.284 -0.0697  0.2211 -0.0897
    1DPPC   C1B17145  25.494  15.127   3.556 -0.2930 -0.0128 -0.0216
    1DPPC   C2B17146  25.809  15.344   3.894  0.1235 -0.2403 -0.2087
    1DPPC   C3B17147  26.040  15.666   3.993  0.1180 -0.5090  0.0284
    1DPPC   C4B17148  26.344  15.896   4.212 -0.1273 -0.1190  0.0264
    1DPPC   NC317149   8.174  13.933   2.481  0.1866 -0.2635  0.0235
    1DPPC   PO417150   8.614  14.048   2.612 -0.0649  0.0968  0.0596
    1DPPC   GL117151   8.314  14.242   2.917 -0.1513  0.1181  0.0491
    1DPPC   GL217152   8.148  13.943   3.053  0.1925  0.0057  0.0395
    1DPPC   C1A17153   8.019  14.404   3.160  0.1329 -0.1414  0.1368
    1DPPC   C2A17154   7.962  14.510   3.515  0.0023  0.1691  0.2776
    1DPPC   C3A17155   7.901  14.637   3.852 -0.0046 -0.2228 -0.2678
    1DPPC   C4A17156   7.888  14.981   4.152  0.1123  0.1857 -0.0269
    1DPPC   C1B17157   8.013  13.933   3.449  0.0208  0.0570  0.1324
    1DPPC   C2B17158   7.945  14.133   3.875 -0.4314 -0.0801  0.2392
    1DPPC   C3B17159   7.774  14.315   4.181  0.3692  0.0097 -0.1805
    1DPPC   C4B17160   7.442  14.380   4.430 -0.0814  0.0403 -0.2653
    1DPPC   NC317161  29.570  15.878   1.565 -0.1089 -0.0883 -0.3273
    1DPPC   PO417162  29.604  16.206   1.959  0.2406  0.1031  0.0058
    1DPPC   GL117163  29.688  16.083   2.406  0.0436 -0.2773  0.0447
    1DPPC   GL217164  29.949  16.087   2.504  0.1327  0.0799  0.2986
    1DPPC   C1A17165  29.500  15.966   2.834 -0.0901  0.0157  0.0716
    1DPPC   C2A17166  29.617  15.891   3.193 -0.0508  0.2094 -0.2467
    1DPPC   C3A17167  29.652  15.974   3.608  0.0674  0.2218  0.0780
    1DPPC   C4A17168  29.502  15.900   4.060 -0.0793 -0.1138  0.0205
    1DPPC   C1B17169  29.860  16.223   2.925 -0.1241 -0.1468  0.1325
    1DPPC   C2B17170  29.968  16.414   3.200  0.0440  0.0437  0.1420
    1DPPC   C3B17171  29.963  16.355   3.655 -0.2068 -0.0906  0.2567
    1DPPC   C4B17172  29.845  16.296   4.103  0.1965  0.0884  0.0814
    1DPPC   NC317173   3.487  20.014   1.849  0.1873 -0.0831 -0.1459
    1DPPC   PO417174   3.174  19.699   2.031  0.0115 -0.1198 -0.2344
    1DPPC   GL117175   2.900  19.645   2.289  0.3243 -0.0052 -0.0687
    1DPPC   GL217176   2.618  19.662   2.198 -0.0243  0.1342  0.1425
    1DPPC   C1A17177   2.843  19.517   2.677  0.0164 -0.1743 -0.3295
    1DPPC   C2A17178   3.018  19.330   3.092 -0.0542  0.0291  0.2380
    1DPPC   C3A17179   2.882  19.330   3.547  0.0594  0.2588  0.1390
    1DPPC   C4A17180   2.589  19.248   3.920  0.1982  0.1450 -0.0045
    1DPPC   C1B17181   2.405  19.537   2.552  0.4493 -0.0848  0.1064
    1DPPC   C2B17182   2.499  19.477   3.012  0.0403 -0.2108  0.0228
    1DPPC   C3B17183   2.394  19.463   3.360 -0.0607  0.2547 -0.1523
    1DPPC   C4B17184   2.413  19.713   3.734  0.3504  0.3647 -0.0705
    1DPPC   NC317185  28.814  12.479   1.981 -0.4128 -0.3157 -0.0973
    1DPPC   PO417186  29.179  12.373   2.141  0.0049  0.2155 -0.0186
    1DPPC   GL117187  29.472  12.375   2.480 -0.1581 -0.0471  0.2437
    1DPPC   GL217188  29.470  12.653   2.587 -0.0071  0.5032  0.1369
    1DPPC   C1A17189  29.715  12.208   2.786 -0.2281  0.0265 -0.1786
    1DPPC   C2A17190  29.764  12.275   3.226 -0.0611 -0.1829 -0.0407
    1DPPC   C3A17191  29.848  12.236   3.661  0.2232 -0.2182  0.1857
    1DPPC   C4A17192  29.847  12.471   4.065  0.0426 -0.0795  0.0419
    1DPPC   C1B17193  29.332  12.417   3.049  0.0389  0.0391 -0.1024
    1DPPC   C2B17194  29.194  12.106   3.362 -0.2891  0.3514 -0.0435
    1DPPC   C3B17195  29.073  12.049   3.843  0.1292 -0.1809 -0.0243
    1DPPC   C4B17196  28.800  12.005   4.126  0.1081  0.1396 -0.0632
    1DPPC   NC317197   1.632  14.357   1.879 -0.2631  0.0589  0.1728
    1DPPC   PO417198   1.324  14.157   2.007 -0.2970  0.1595 -0.1386
    1DPPC   GL117199   1.424  14.086   2.410 -0.0009  0.1665 -0.2211
    1DPPC   GL217200   1.612  13.883   2.447 -0.3894  0.2084  0.2600
    1DPPC   C1A17201   1.458  14.078   2.849  0.0212  0.1861 -0.0233
    1DPPC   C2A17202   1.545  14.213   3.220  0.0521  0.2406 -0.3038
    1DPPC   C3A17203   1.590  14.504   3.643  0.1006 -0.0714  0.2034
    1DPPC   C4A17204   1.432  14.368   4.054 -0.0493  0.0590  0.1964
    1DPPC   C1B17205   1.773  13.690   2.813 -0.0899  0.1100 -0.0764
    1DPPC   C2B17206   1.755  13.569   3.186  0.1764 -0.0093  0.0453
    1DPPC   C3B17207   1.723  13.593   3.599  0.0688 -0.2481 -0.0556
    1DPPC   C4B17208   1.787  13.539   4.003 -0.0560 -0.1737 -0.2477
    1DPPC   NC317209  27.917  17.004   1.828  0.1847 -0.1918 -0.0076
    1DPPC   PO417210  28.175  16.551   1.848  0.1535 -0.0433 -0.0524
    1DPPC   GL117211  28.352  16.772   2.177 -0.1207  0.1007 -0.0340
    1DPPC   GL217212  28.553  17.023   2.321  0.0268  0.0271  0.1653
    1DPPC   C1A17213  28.275  16.776   2.679 -0.2543  0.0517  0.3416
    1DPPC   C2A17214  28.394  16.748   3.105 -0.2275 -0.3702  0.2253
    1DPPC   C3A17215  28.393  16.738   3.611  0.0847  0.0658 -0.1170
    1DPPC   C4A17216  28.382  16.662   4.007  0.1983 -0.0747  0.0219
    1DPPC   C1B17217  28.691  17.101   2.729 -0.1485 -0.1788  0.0738
    1DPPC   C2B17218  28.755  17.184   3.151  0.2477 -0.0088  0.1735
    1DPPC   C3B17219  28.670  17.144   3.505  0.0291  0.0888  0.1369
    1DPPC   C4B17220  28.532  17.132   3.914 -0.1540  0.1343 -0.1311
    1DPPC   NC317221  12.509   8.734   3.067  0.1491 -0.2292 -0.1218
    1DPPC   PO417222  12.255   9.026   3.318  0.1072 -0.0095  0.1510
    1DPPC   GL117223  12.224   8.968   3.692  0.0024 -0.2615 -0.1599
    1DPPC   GL217224  12.239   9.309   3.869  0.0161 -0.1468  0.0523
    1DPPC   C1A17225  12.107   8.808   4.161  0.1801  0.1436  0.5828
    1DPPC   C2A17226  12.002   8.895   4.518 -0.0642  0.0473  0.0983
    1DPPC   C3A17227  12.138   9.054   4.823 -0.0047  0.1658  0.1852
    1DPPC   C4A17228  11.958   8.965   5.266 -0.0522 -0.0553  0.1205
    1DPPC   C1B17229  12.615   9.378   4.182  0.1774  0.2570 -0.1168
    1DPPC   C2B17230  12.623   9.522   4.576 -0.2042 -0.0300 -0.1431
    1DPPC   C3B17231  12.311   9.506   4.974  0.0779 -0.2639 -0.0653
    1DPPC   C4B17232  12.162   9.448   5.461  0.2030  0.2981 -0.0438
    1DPPC   NC317233  29.419  23.106   2.559 -0.2245  0.1541  0.0131
    1DPPC   PO417234  29.737  22.830   2.620 -0.1767 -0.0626  0.0379
    1DPPC   GL117235  29.697  22.640   3.064 -0.2870  0.0305  0.0027
    1DPPC   GL217236  29.832  22.366   3.086 -0.0217 -0.0535  0.2105
    1DPPC   C1A17237  29.748  22.717   3.514  0.1914  0.2193  0.0882
    1DPPC   C2A17238  29.780  22.778   3.905 -0.0642 -0.2044 -0.0607
    1DPPC   C3A17239  29.592  22.602   4.359 -0.0263  0.1249  0.0585
    1DPPC   C4A17240  29.040  22.429   4.369 -0.2346  0.0864 -0.0988
    1DPPC   C1B17241  29.866  22.275   3.475 -0.2349 -0.0976  0.1494
    1DPPC   C2B17242  29.825  22.248   3.862 -0.1839 -0.3049  0.1163
    1DPPC   C3B17243  29.848  22.169   4.250  0.0155 -0.1013  0.0700
    1DPPC   C4B17244  29.791  22.235   4.692 -0.0892 -0.3268 -0.1609
    1DPPC   NC317245   5.998   7.203   2.989 -0.0772  0.0064  0.1015
    1DPPC   PO417246   6.422   7.045   2.850  0.3416  0.6190  0.3645
    1DPPC   GL117247   6.468   7.145   3.270 -0.0867 -0.2658 -0.1720
    1DPPC   GL217248   6.577   7.455   3.431  0.1635  0.0330  0.0658
    1DPPC   C1A17249   6.324   7.069   3.763  0.2230  0.0696  0.0288
    1DPPC   C2A17250   6.132   7.102   4.118 -0.0149 -0.0628  0.1625
    1DPPC   C3A17251   5.884   6.878   4.394  0.1025 -0.1505  0.0642
    1DPPC   C4A17252   5.629   6.814   4.756  0.0785 -0.1229 -0.0616
    1DPPC   C1B17253   6.660   7.400   3.910  0.0021  0.0251 -0.2623
    1DPPC   C2B17254   6.535   7.370   4.325  0.2309  0.0742  0.1681
    1DPPC   C3B17255   6.361   7.035   4.601  0.1182  0.0392  0.1697
    1DPPC   C4B17256   6.505   6.728   4.905 -0.2643 -0.0461  0.2287
    1DPPC   NC317257   2.329  15.212   1.345  0.3524  0.0778  0.4039
    1DPPC   PO417258   2.287  15.465   1.643 -0.1575 -0.1924  0.0627
    1DPPC   GL117259   2.337  15.517   2.109 -0.0422 -0.0502 -0.0965
    1DPPC   GL217260   2.395  15.869   2.295  0.0619  0.0831 -0.1698
    1DPPC   C1A17261   2.357  15.272   2.463 -0.3182  0.3027 -0.4712
    1DPPC   C2A17262   2.486  15.175   2.882 -0.0821 -0.1412  0.0916
    1DPPC   C3A17263   2.368  15.405   3.254 -0.0680  0.0001  0.0142
    1DPPC   C4A17264   2.241  15.438   3.692  0.4195 -0.0011  0.1590
    1DPPC   C1B17265   2.372  15.707   2.736  0.1708 -0.1937  0.4191
    1DPPC   C2B17266   2.560  15.854   3.088  0.0213  0.1299  0.0975
    1DPPC   C3B17267   2.521  15.903   3.532 -0.0038 -0.0543  0.0892
    1DPPC   C4B17268   2.590  16.053   3.956  0.4203  0.1418 -0.1386
    1DPPC   NC317269  24.230  19.517   1.942  0.1767  0.0370  0.1402
    1DPPC   PO417270  24.033  19.874   1.879 -0.2696  0.0179  0.1655
    1DPPC   GL117271  24.013  19.819   2.320  0.1309 -0.0036 -0.0224
    1DPPC   GL217272  24.359  19.730   2.477  0.2222 -0.3907  0.1993
    1DPPC   C1A17273  23.916  19.700   2.745 -0.1583  0.2543 -0.3450
    1DPPC   C2A17274  23.967  19.873   3.203  0.0659  0.3945 -0.1831
    1DPPC   C3A17275  23.737  20.178   3.538  0.1716  0.0333  0.1617
    1DPPC   C4A17276  23.333  20.147   3.675  0.0187  0.0326 -0.2322
    1DPPC   C1B17277  24.472  19.874   2.939  0.0837  0.1495 -0.0176
    1DPPC   C2B17278  24.422  19.758   3.359 -0.1359 -0.2504  0.1839
    1DPPC   C3B17279  24.132  19.810   3.723 -0.1283  0.0444  0.0335
    1DPPC   C4B17280  23.924  19.824   4.077 -0.1423 -0.0045  0.0821
    1DPPC   NC317281   7.206  17.904   1.796  0.0309  0.1954 -0.2459
    1DPPC   PO417282   6.735  17.780   1.658 -0.1601  0.2296  0.1506
    1DPPC   GL117283   6.724  17.903   2.075 -0.0670  0.2896 -0.1223
    1DPPC   GL217284   6.429  17.666   2.193  0.1112  0.2090  0.0055
    1DPPC   C1A17285   6.833  17.957   2.581  0.0667  0.2278 -0.2418
    1DPPC   C2A17286   6.983  17.874   3.074  0.0296  0.3483 -0.1590
    1DPPC   C3A17287   7.118  18.077   3.326  0.0591  0.0714 -0.1860
    1DPPC   C4A17288   7.101  18.365   3.627  0.0737 -0.0710 -0.1652
    1DPPC   C1B17289   6.125  17.911   2.348 -0.0990  0.2892  0.1586
    1DPPC   C2B17290   6.135  18.179   2.683 -0.0574  0.1162  0.3598
    1DPPC   C3B17291   6.080  18.344   3.079 -0.0929  0.0638 -0.1667
    1DPPC   C4B17292   6.006  18.449   3.539 -0.1908  0.0175  0.0458
    1DPPC   NC317293  18.466  28.743   2.893 -0.1191 -0.1163 -0.1453
    1DPPC   PO417294  18.712  28.317   2.954  0.0142  0.0959 -0.0190
    1DPPC   GL117295  18.597  28.028   3.325 -0.2540 -0.2241 -0.0466
    1DPPC   GL217296  18.894  27.744   3.366 -0.1071  0.1367 -0.3101
    1DPPC   C1A17297  18.585  28.284   3.791 -0.2343  0.0178 -0.4087
    1DPPC   C2A17298  18.584  28.125   4.137  0.0635  0.1376  0.1828
    1DPPC   C3A17299  18.438  28.226   4.528  0.2533 -0.2621 -0.0252
    1DPPC   C4A17300  18.329  28.038   4.988  0.0498  0.3771 -0.1737
    1DPPC   C1B17301  18.657  27.738   3.806 -0.1740  0.0154  0.0865
    1DPPC   C2B17302  18.552  27.628   4.250 -0.1855 -0.2504 -0.1709
    1DPPC   C3B17303  18.739  27.866   4.634  0.1990  0.1207  0.2488
    1DPPC   C4B17304  18.818  28.024   5.124  0.1249  0.2285 -0.1421
    1DPPC   NC317305   5.952  11.745   2.523 -0.0010 -0.4573 -0.2923
    1DPPC   PO417306   6.344  12.066   2.410 -0.1111  0.2267 -0.1071
    1DPPC   GL117307   6.337  11.905   2.873 -0.0987  0.1709 -0.0640
    1DPPC   GL217308   6.076  11.934   3.040 -0.1155 -0.2473  0.2914
    1DPPC   C1A17309   6.636  11.994   3.163  0.2536  0.2117 -0.2851
    1DPPC   C2A17310   6.740  12.002   3.551 -0.3323 -0.1709  0.3944
    1DPPC   C3A17311   6.857  12.047   3.958 -0.0300 -0.0576 -0.0525
    1DPPC   C4A17312   6.791  11.997   4.247 -0.0932 -0.0274  0.1402
    1DPPC   C1B17313   6.175  11.967   3.478  0.1412 -0.0874 -0.0223
    1DPPC   C2B17314   6.372  12.014   3.931  0.2836 -0.2949  0.0145
    1DPPC   C3B17315   6.292  12.046   4.425  0.1292 -0.0735 -0.0213
    1DPPC   C4B17316   6.385  12.335   4.715 -0.1399  0.1375 -0.1176
    1DPPC   NC317317   0.808   8.583   2.820  0.2524  0.0256  0.0436
    1DPPC   PO417318   0.669   8.981   2.857  0.0430  0.2407  0.1272
    1DPPC   GL117319   0.935   9.145   3.194  0.6750  0.0665  0.2013
    1DPPC   GL217320   0.732   9.502   3.114 -0.1141 -0.3334 -0.0860
    1DPPC   C1A17321   0.887   9.181   3.678  0.0668  0.1020  0.0358
    1DPPC   C2A17322   0.994   9.113   4.019 -0.3246  0.2168 -0.1336
    1DPPC   C3A17323   1.123   9.017   4.370  0.0422 -0.0811 -0.0797
    1DPPC   C4A17324   1.205   8.989   4.833 -0.0544  0.1978 -0.0950
    1DPPC   C1B17325   0.826   9.653   3.512 -0.0407  0.0090  0.1723
    1DPPC   C2B17326   0.774   9.583   3.916 -0.0501 -0.0465 -0.1041
    1DPPC   C3B17327   0.800   9.493   4.284 -0.3015  0.5244 -0.2045
    1DPPC   C4B17328   0.965   9.469   4.714 -0.3612  0.1563 -0.0746
    1DPPC   NC317329  10.094  15.423   2.467 -0.0058  0.1085 -0.4317
    1DPPC   PO417330  10.537  15.432   2.663  0.2145 -0.1531  0.1456
    1DPPC   GL117331  10.368  15.682   2.929 -0.0537 -0.2805  0.3762
    1DPPC   GL217332  10.589  15.716   3.245 -0.0393  0.1218 -0.0720
    1DPPC   C1A17333  10.034  15.713   3.193  0.2475  0.0797  0.0417
    1DPPC   C2A17334   9.799  15.724   3.506  0.0007 -0.0222 -0.0193
    1DPPC   C3A17335   9.783  15.471   3.755 -0.2470  0.1870 -0.3248
    1DPPC   C4A17336   9.709  15.136   4.080  0.2703  0.0099  0.0004
    1DPPC   C1B17337  10.669  15.780   3.597 -0.1411 -0.0866  0.0571
    1DPPC   C2B17338  10.542  15.943   4.020 -0.2796  0.0192 -0.0357
    1DPPC   C3B17339  10.514  15.938   4.475 -0.3093 -0.1729  0.0078
    1DPPC   C4B17340  10.748  16.162   4.760 -0.1589 -0.0666 -0.1136
    1DPPC   NC317341   0.244   9.404   2.801  0.2711 -0.1562  0.0199
    1DPPC   PO417342   0.274   9.868   2.890 -0.2448 -0.0740  0.1088
    1DPPC   GL117343   0.236   9.666   3.311  0.0676  0.1710 -0.2190
    1DPPC   GL217344  30.296   9.519   3.536 -0.0004 -0.1700 -0.0691
    1DPPC   C1A17345   0.351   9.622   3.728 -0.3263 -0.1830  0.2068
    1DPPC   C2A17346   0.248   9.620   4.145  0.2582  0.0242  0.3774
    1DPPC   C3A17347   0.396   9.442   4.604 -0.0921 -0.0445 -0.0649
    1DPPC   C4A17348   0.614   9.579   5.006  0.2672  0.2174 -0.1266
    1DPPC   C1B17349  30.218   9.319   3.936  0.2357  0.2449  0.5439
    1DPPC   C2B17350  30.275   9.312   4.318  0.3003 -0.3927  0.0466
    1DPPC   C3B17351  30.136   9.334   4.719  0.0291  0.2380  0.0343
    1DPPC   C4B17352  29.722   9.094   4.863 -0.1758  0.1212 -0.0753
    1DPPC   NC317353  27.221  10.867   2.263  0.4441  0.1094  0.0530
    1DPPC   PO417354  27.645  10.744   2.383  0.0290 -0.1051  0.2422
    1DPPC   GL117355  27.453  10.925   2.767  0.0182  0.0881  0.3601
    1DPPC   GL217356  27.228  11.093   2.694  0.1797  0.0593 -0.0692
    1DPPC   C1A17357  27.460  10.976   3.226 -0.0348 -0.3027 -0.0947
    1DPPC   C2A17358  27.383  11.043   3.614  0.0695  0.2544  0.0029
    1DPPC   C3A17359  27.400  11.173   4.012  0.2051  0.0953 -0.1409
    1DPPC   C4A17360  27.545  10.915   4.421 -0.0834  0.0260 -0.3167
    1DPPC   C1B17361  27.034  11.257   3.092 -0.2141  0.1635  0.1028
    1DPPC   C2B17362  26.859  11.174   3.498  0.1677  0.2575 -0.0953
    1DPPC   C3B17363  26.988  10.841   3.882  0.0657 -0.1249 -0.1537
    1DPPC   C4B17364  27.210  10.653   4.236 -0.0436 -0.0352 -0.1038
    1DPPC   NC317365  29.654  21.421   1.742 -0.0535 -0.0109  0.0760
    1DPPC   PO417366  29.985  21.090   1.919 -0.3318 -0.2216  0.1610
    1DPPC   GL117367  29.873  21.476   2.201  0.0602 -0.3319  0.0355
    1DPPC   GL217368  29.575  21.581   2.292  0.2226 -0.3790  0.1161
    1DPPC   C1A17369  30.064  21.465   2.604  0.1097  0.3376 -0.2077
    1DPPC   C2A17370  30.122  21.377   2.932 -0.0759  0.1411  0.0660
    1DPPC   C3A17371  30.190  21.378   3.399 -0.2044  0.2225  0.2590
    1DPPC   C4A17372  30.301  21.395   3.812  0.0441 -0.1459  0.2122
    1DPPC   C1B17373  29.544  21.379   2.681  0.1283  0.0095 -0.0265
    1DPPC   C2B17374  29.664  21.381   3.111  0.1060  0.3037 -0.2353
    1DPPC   C3B17375  29.739  21.276   3.480  0.1598  0.1847 -0.0472
    1DPPC   C4B17376  29.754  21.256   3.940 -0.2492 -0.1109 -0.0703
    1DPPC   NC317377  18.158   9.913   2.593 -0.1613  0.0586  0.2681
    1DPPC   PO417378  17.874  10.249   2.848 -0.0780 -0.0237  0.0113
    1DPPC   GL117379  17.899  10.292   3.333  0.0307  0.1728 -0.2214
    1DPPC   GL217380  17.898  10.557   3.433  0.0220 -0.1536 -0.0416
    1DPPC   C1A17381  18.415  10.162   3.534 -0.0458 -0.1969  0.1338
    1DPPC   C2A17382  18.542   9.910   3.846 -0.2622 -0.1984 -0.3007
    1DPPC   C3A17383  18.956   9.946   3.926  0.0873 -0.0010  0.1952
    1DPPC   C4A17384  19.239  10.239   3.948  0.1150  0.1690  0.4864
    1DPPC   C1B17385  17.657  10.774   3.765  0.2088  0.2036 -0.0020
    1DPPC   C2B17386  17.240  10.553   4.029  0.0621 -0.0745 -0.3873
    1DPPC   C3B17387  16.900  10.748   4.364 -0.2217 -0.2929 -0.3506
    1DPPC   C4B17388  16.554  10.994   4.452 -0.5661  0.3156 -0.1346
    1DPPC   NC317389   6.858  26.334   2.949 -0.2758 -0.0783 -0.1174
    1DPPC   PO417390   7.002  25.935   2.813 -0.1631 -0.3060  0.1417
    1DPPC   GL117391   7.174  25.846   3.184 -0.1694 -0.2751 -0.3376
    1DPPC   GL217392   7.079  26.100   3.397 -0.1481 -0.1127 -0.0002
    1DPPC   C1A17393   7.370  25.722   3.534 -0.3980  0.1607 -0.2154
    1DPPC   C2A17394   7.467  25.387   3.953  0.1724  0.0104  0.2522
    1DPPC   C3A17395   7.775  25.538   4.298  0.1598  0.0771  0.4094
    1DPPC   C4A17396   7.661  25.934   4.564  0.1706  0.2338 -0.1439
    1DPPC   C1B17397   7.232  26.077   3.837 -0.0957 -0.0753  0.0908
    1DPPC   C2B17398   7.248  25.996   4.301 -0.0675  0.3681  0.0415
    1DPPC   C3B17399   7.088  26.238   4.674 -0.1389 -0.0595  0.3429
    1DPPC   C4B17400   6.954  26.237   5.052 -0.3809  0.5344 -0.2033
    1DPPC   NC317401  15.498  10.039   2.254 -0.2271 -0.1502 -0.2614
    1DPPC   PO417402  15.799  10.220   2.461 -0.0385  0.1358  0.0522
    1DPPC   GL117403  15.681  10.091   2.710  0.1166  0.2137 -0.1336
    1DPPC   GL217404  16.009   9.869   2.809  0.0037 -0.0509  0.2875
    1DPPC   C1A17405  15.753  10.052   3.160  0.4288  0.0550 -0.0650
    1DPPC   C2A17406  15.835   9.829   3.424 -0.0057 -0.0889 -0.6473
    1DPPC   C3A17407  16.116   9.877   3.765 -0.1386  0.0955  0.2049
    1DPPC   C4A17408  16.204  10.238   4.132  0.2181  0.0785  0.1162
    1DPPC   C1B17409  16.002   9.527   3.041  0.1507  0.1358  0.2485
    1DPPC   C2B17410  16.126   9.361   3.439 -0.0644  0.0942 -0.1094
    1DPPC   C3B17411  16.125   9.399   3.926  0.1269 -0.1183  0.0945
    1DPPC   C4B17412  16.091   9.214   4.345  0.1122  0.1578 -0.2180
    1DPPC   NC317413   6.360   8.958   2.853 -0.0244  0.0825 -0.1140
    1DPPC   PO417414   6.080   8.736   2.988  0.2798  0.0718  0.1105
    1DPPC   GL117415   6.367   8.612   3.305  0.1297 -0.1413  0.2145
    1DPPC   GL217416   6.188   8.475   3.520 -0.0835 -0.1301  0.0116
    1DPPC   C1A17417   6.673   8.459   3.545  0.0963 -0.0826  0.3016
    1DPPC   C2A17418   7.003   8.342   3.825  0.0791  0.1663  0.0664
    1DPPC   C3A17419   7.324   8.250   4.044 -0.3240 -0.2814  0.1392
    1DPPC   C4A17420   7.361   8.294   4.465 -0.2014  0.0458 -0.1661
    1DPPC   C1B17421   6.025   8.800   3.760 -0.1914  0.0150  0.2578
    1DPPC   C2B17422   5.779   9.007   4.088 -0.2217 -0.1733  0.2139
    1DPPC   C3B17423   5.743   9.476   4.154  0.1242 -0.2224 -0.1008
    1DPPC   C4B17424   5.595   9.903   4.238 -0.1799  0.0911 -0.0378
    1DPPC   NC317425  29.724  11.368   2.320  0.1123  0.2257  0.1744
    1DPPC   PO417426  29.456  11.591   2.336 -0.0118 -0.0615  0.0408
    1DPPC   GL117427  29.488  11.378   2.743 -0.0035  0.0336 -0.2476
    1DPPC   GL217428  29.553  11.128   2.790 -0.5451  0.1425  0.0257
    1DPPC   C1A17429  29.141  11.565   3.035  0.0688  0.2721  0.0716
    1DPPC   C2A17430  29.098  11.669   3.501  0.1014  0.0596 -0.3115
    1DPPC   C3A17431  28.822  11.582   3.838 -0.0754  0.0654 -0.2756
    1DPPC   C4A17432  28.709  11.590   4.371  0.0287 -0.3308 -0.1341
    1DPPC   C1B17433  29.223  11.061   3.179 -0.0627 -0.0866  0.3284
    1DPPC   C2B17434  29.199  11.133   3.560 -0.0531 -0.0448  0.3379
    1DPPC   C3B17435  29.389  11.363   3.831  0.2393 -0.4313 -0.0813
    1DPPC   C4B17436  29.171  11.590   4.200  0.3552 -0.0652  0.0428
    1DPPC   NC317437   3.114  13.114   1.767 -0.1285  0.1080  0.0544
    1DPPC   PO417438   2.620  13.134   2.076  0.3173  0.1418 -0.4358
    1DPPC   GL117439   2.827  13.252   2.472 -0.4996 -0.1972  0.0001
    1DPPC   GL217440   2.966  12.962   2.666 -0.1004  0.0654 -0.0641
    1DPPC   C1A17441   2.864  13.427   2.863  0.1907 -0.0629 -0.1098
    1DPPC   C2A17442   2.750  13.589   3.231  0.3889  0.0099  0.1280
    1DPPC   C3A17443   2.697  13.729   3.681  0.0206  0.2421 -0.4313
    1DPPC   C4A17444   2.748  13.664   4.113 -0.2250  0.1775  0.1582
    1DPPC   C1B17445   3.014  13.094   3.169 -0.0033 -0.1429  0.1794
    1DPPC   C2B17446   3.195  13.263   3.436  0.1356 -0.2090 -0.2118
    1DPPC   C3B17447   3.179  13.464   3.905 -0.2845 -0.1017  0.4525
    1DPPC   C4B17448   3.244  13.194   4.308  0.0599 -0.1953  0.0674
    1DPPC   NC317449  29.216  11.033   2.441  0.2788  0.2844 -0.4303
    1DPPC   PO417450  29.401  10.570   2.540  0.1634  0.1729  0.0526
    1DPPC   GL117451  29.311  10.490   2.914  0.0188 -0.0944 -0.1167
    1DPPC   GL217452  29.601  10.301   3.102 -0.0137 -0.0364  0.1066
    1DPPC   C1A17453  29.348  10.604   3.379 -0.1637  0.1420 -0.1003
    1DPPC   C2A17454  29.276  10.753   3.860 -0.1596 -0.2929 -0.0439
    1DPPC   C3A17455  29.206  10.630   4.274  0.0907 -0.0677  0.0370
    1DPPC   C4A17456  29.308  10.447   4.693  0.1462  0.1629 -0.0570
    1DPPC   C1B17457  29.703  10.264   3.581  0.0688  0.1545  0.0151
    1DPPC   C2B17458  29.584  10.373   3.952 -0.1150  0.1158 -0.0249
    1DPPC   C3B17459  29.629  10.145   4.432 -0.1099  0.0587  0.1239
    1DPPC   C4B17460  29.490  10.015   4.863  0.0896 -0.0028  0.1067
    1DPPC   NC317461   1.842  22.175   2.515 -0.0341 -0.3122 -0.0771
    1DPPC   PO417462   1.431  22.323   2.465 -0.0991  0.1431  0.3549
    1DPPC   GL117463   1.396  22.473   2.806 -0.0485 -0.2144 -0.1895
    1DPPC   GL217464   1.509  22.754   2.864 -0.3809 -0.0204 -0.2533
    1DPPC   C1A17465   1.495  22.394   3.274  0.1557  0.2028 -0.0503
    1DPPC   C2A17466   1.428  22.575   3.561  0.3074 -0.0328 -0.1406
    1DPPC   C3A17467   1.488  22.678   4.025 -0.2347  0.0954 -0.0464
    1DPPC   C4A17468   1.544  22.812   4.407  0.0592 -0.0985 -0.1621
    1DPPC   C1B17469   1.714  22.874   3.128  0.0528  0.0068  0.1844
    1DPPC   C2B17470   1.870  22.775   3.431  0.1049 -0.2508 -0.0056
    1DPPC   C3B17471   1.910  22.506   3.819  0.0749 -0.0703 -0.1830
    1DPPC   C4B17472   1.854  22.407   4.297 -0.0439 -0.1464 -0.2612
    1DPPC   NC317473  26.465  20.144   1.421  0.1257 -0.1282  0.0044
    1DPPC   PO417474  26.109  20.227   1.782 -0.3541  0.0953 -0.0731
    1DPPC   GL117475  25.960  20.218   2.266  0.3315  0.1559  0.0717
    1DPPC   GL217476  26.202  20.360   2.257 -0.4895 -0.0922  0.0475
    1DPPC   C1A17477  26.026  19.949   2.615 -0.0915 -0.0980 -0.0664
    1DPPC   C2A17478  25.913  19.644   3.001  0.1499 -0.2312  0.1135
    1DPPC   C3A17479  26.063  19.311   3.272  0.0401  0.1058 -0.0294
    1DPPC   C4A17480  25.998  19.064   3.629  0.0188 -0.1253  0.3054
    1DPPC   C1B17481  26.453  20.104   2.493  0.1190 -0.2296 -0.0248
    1DPPC   C2B17482  26.298  19.949   3.054 -0.0440 -0.1383 -0.2154
    1DPPC   C3B17483  26.318  19.752   3.382  0.1569 -0.2097  0.3315
    1DPPC   C4B17484  26.315  19.841   3.808  0.0561 -0.0900 -0.0803
    1DPPC   NC317485   4.240  20.325   1.670  0.1413  0.1393 -0.0067
    1DPPC   PO417486   3.846  20.397   1.859  0.2289 -0.1143 -0.2004
    1DPPC   GL117487   3.541  20.452   2.140  0.0247  0.0945  0.0781
    1DPPC   GL217488   3.545  20.126   2.290  0.0547 -0.0615 -0.1494
    1DPPC   C1A17489   3.555  20.712   2.546  0.0639  0.0708 -0.1009
    1DPPC   C2A17490   3.635  20.762   2.981 -0.0910  0.0301  0.1943
    1DPPC   C3A17491   3.532  20.871   3.417 -0.0485  0.2116  0.1133
    1DPPC   C4A17492   3.803  20.984   3.690 -0.0781  0.1454  0.2263
    1DPPC   C1B17493   3.738  20.236   2.640  0.0832  0.0427 -0.2640
    1DPPC   C2B17494   3.701  20.305   3.063 -0.2470  0.1820 -0.3865
    1DPPC   C3B17495   3.693  20.341   3.440  0.1739  0.2389 -0.0167
    1DPPC   C4B17496   3.628  20.479   3.830  0.3198  0.0861  0.0004
    1DPPC   NC317497   1.517  20.632   1.848 -0.1444  0.2060 -0.2246
    1DPPC   PO417498   1.646  20.184   1.673 -0.0681 -0.0747 -0.0449
    1DPPC   GL117499   1.613  20.017   2.096  0.2988 -0.1339 -0.0172
    1DPPC   GL217500   1.509  19.724   2.012  0.0105  0.0467  0.1470
    1DPPC   C1A17501   1.717  20.180   2.478  0.1684  0.0700 -0.2309
    1DPPC   C2A17502   1.789  20.214   2.913  0.4213  0.1328 -0.0222
    1DPPC   C3A17503   1.753  20.360   3.370 -0.0021 -0.2542  0.1364
    1DPPC   C4A17504   1.339  20.446   3.253  0.0522 -0.2909  0.1215
    1DPPC   C1B17505   1.420  19.649   2.469  0.0064  0.0193  0.0103
    1DPPC   C2B17506   1.289  19.423   2.804  0.0110  0.2359  0.0154
    1DPPC   C3B17507   1.356  19.436   3.163  0.0155  0.3813  0.0621
    1DPPC   C4B17508   1.530  19.428   3.673 -0.0484  0.0097  0.2428
    1DPPC   NC317509   3.285  20.425   1.655  0.0848  0.0645  0.0139
    1DPPC   PO417510   3.477  20.787   1.624 -0.1493 -0.1121 -0.3876
    1DPPC   GL117511   3.301  20.840   2.036  0.1667  0.0198 -0.3465
    1DPPC   GL217512   3.322  21.076   2.211 -0.0713  0.0701  0.1426
    1DPPC   C1A17513   3.047  20.748   2.433 -0.0816 -0.0021 -0.3800
    1DPPC   C2A17514   3.090  20.858   2.858  0.2291 -0.1029  0.2455
    1DPPC   C3A17515   3.035  20.903   3.263  0.1886 -0.1852  0.0769
    1DPPC   C4A17516   3.148  20.901   3.750 -0.1021 -0.1838  0.1086
    1DPPC   C1B17517   3.415  21.197   2.646 -0.2273 -0.1274 -0.1004
    1DPPC   C2B17518   3.639  21.235   3.069  0.1083  0.0850  0.0215
    1DPPC   C3B17519   3.978  21.416   3.316 -0.0122 -0.1908 -0.0033
    1DPPC   C4B17520   4.117  21.691   3.770 -0.0185  0.1551  0.1248
    1DPPC   NC317521  26.933  20.989   2.070  0.0829 -0.2267 -0.2333
    1DPPC   PO417522  26.591  21.260   2.139 -0.2517 -0.1444 -0.1127
    1DPPC   GL117523  26.708  21.099   2.512  0.0833 -0.2108 -0.2878
    1DPPC   GL217524  26.989  21.067   2.582 -0.0883  0.0434 -0.0704
    1DPPC   C1A17525  26.565  20.972   2.937  0.1666  0.1168  0.1057
    1DPPC   C2A17526  26.413  20.997   3.392  0.1102  0.0286  0.1636
    1DPPC   C3A17527  26.342  20.946   3.845 -0.0491 -0.0378  0.1066
    1DPPC   C4A17528  26.458  20.936   4.336  0.3749 -0.1747 -0.0342
    1DPPC   C1B17529  26.979  20.765   2.915  0.0252  0.0405 -0.1619
    1DPPC   C2B17530  26.993  20.852   3.213 -0.0282  0.2304  0.2928
    1DPPC   C3B17531  26.755  20.671   3.530 -0.1067  0.0480 -0.0517
    1DPPC   C4B17532  26.694  20.574   4.028 -0.2082 -0.1996  0.1883
    1DPPC   NC317533  29.513  17.227   1.919  0.0790 -0.1167  0.2044
    1DPPC   PO417534  29.728  17.506   2.045 -0.0171 -0.1179  0.2126
    1DPPC   GL117535  30.073  17.724   2.270 -0.1005 -0.1682 -0.1400
    1DPPC   GL217536  29.803  17.914   2.384 -0.2733  0.4042 -0.0716
    1DPPC   C1A17537   0.071  17.903   2.513 -0.0117  0.2546 -0.0126
    1DPPC   C2A17538   0.058  17.897   2.905  0.1396 -0.0801  0.1656
    1DPPC   C3A17539   0.168  17.795   3.387 -0.0889 -0.2055 -0.0518
    1DPPC   C4A17540   0.210  17.851   3.690  0.1000  0.0767  0.1136
    1DPPC   C1B17541  29.887  17.745   2.749 -0.0889  0.1642  0.0036
    1DPPC   C2B17542  29.840  17.824   3.138 -0.0701 -0.1617 -0.4174
    1DPPC   C3B17543  29.963  17.661   3.546 -0.0878 -0.3429  0.2787
    1DPPC   C4B17544  29.904  17.664   4.023 -0.1435  0.0808 -0.0094
    1DPPC   NC317545  21.472   4.383   2.959  0.2082 -0.0010  0.0160
    1DPPC   PO417546  21.235   4.479   3.290  0.2464 -0.2384 -0.0412
    1DPPC   GL117547  21.031   4.226   3.583  0.2409 -0.1926  0.0957
    1DPPC   GL217548  20.740   4.034   3.544  0.1355  0.1229  0.0289
    1DPPC   C1A17549  21.144   3.977   3.867  0.4183 -0.0649 -0.1191
    1DPPC   C2A17550  21.041   3.895   4.319 -0.0032  0.1148 -0.3106
    1DPPC   C3A17551  20.964   4.054   4.750 -0.0656  0.1626  0.1250
    1DPPC   C4A17552  20.660   4.075   5.082  0.0760  0.0009 -0.0729
    1DPPC   C1B17553  20.390   4.176   3.698  0.1899  0.0248  0.1261
    1DPPC   C2B17554  20.032   4.272   4.062 -0.1114  0.0275  0.1052
    1DPPC   C3B17555  19.830   4.451   4.379 -0.2982 -0.0653 -0.1327
    1DPPC   C4B17556  19.637   4.751   4.627 -0.1548  0.0515 -0.0830
    1DPPC   NC317557   4.260  11.909   1.835 -0.3222  0.2878  0.1670
    1DPPC   PO417558   4.045  11.896   2.318  0.2299  0.3030  0.2442
    1DPPC   GL117559   4.256  12.149   2.580  0.1720 -0.0027  0.0717
    1DPPC   GL217560   4.561  12.072   2.725 -0.0082 -0.2242 -0.3133
    1DPPC   C1A17561   4.256  12.368   2.935 -0.1038  0.0008 -0.0389
    1DPPC   C2A17562   4.263  12.431   3.373  0.1241 -0.0999 -0.2275
    1DPPC   C3A17563   4.249  12.442   3.803 -0.0180  0.0933 -0.0897
    1DPPC   C4A17564   4.508  12.627   4.132 -0.1524 -0.1736  0.1991
    1DPPC   C1B17565   4.408  11.927   3.066  0.0567  0.3340  0.0651
    1DPPC   C2B17566   4.487  11.971   3.481  0.0334  0.2847 -0.0535
    1DPPC   C3B17567   4.508  12.007   3.952 -0.2827  0.2714 -0.0056
    1DPPC   C4B17568   4.475  12.122   4.376  0.1028  0.0793  0.0318
    1DPPC   NC317569  23.991  18.110   1.678  0.1070  0.0680 -0.2871
    1DPPC   PO417570  23.925  18.588   1.832 -0.0412 -0.3287  0.3119
    1DPPC   GL117571  23.859  18.775   2.186 -0.0056  0.2405 -0.1616
    1DPPC   GL217572  24.203  18.719   2.362 -0.0125 -0.2481  0.0061
    1DPPC   C1A17573  23.589  18.956   2.495 -0.0840 -0.1718 -0.2930
    1DPPC   C2A17574  23.675  18.951   2.865 -0.0013  0.2031  0.0240
    1DPPC   C3A17575  23.654  19.164   3.322 -0.0835 -0.0345 -0.1357
    1DPPC   C4A17576  23.461  19.190   3.620  0.0421 -0.3116  0.2040
    1DPPC   C1B17577  24.147  18.719   2.851  0.0615  0.1911  0.1014
    1DPPC   C2B17578  24.145  18.886   3.242  0.1775 -0.3914  0.0408
    1DPPC   C3B17579  23.838  18.842   3.623  0.0109  0.5260 -0.2007
    1DPPC   C4B17580  23.465  18.778   3.899 -0.1892  0.0673  0.1995
    1DPPC   NC317581  28.537  11.349   1.765  0.0167 -0.0472  0.1505
    1DPPC   PO417582  28.785  11.145   2.186  0.0564  0.1245 -0.0608
    1DPPC   GL117583  28.597  11.258   2.646 -0.0588  0.0435 -0.3200
    1DPPC   GL217584  28.338  11.370   2.676  0.1250 -0.3412 -0.0367
    1DPPC   C1A17585  28.726  11.295   3.077  0.0642  0.3689 -0.2711
    1DPPC   C2A17586  28.713  11.248   3.485  0.0505  0.1885 -0.1261
    1DPPC   C3A17587  28.460  11.210   3.783  0.0085  0.1137 -0.1340
    1DPPC   C4A17588  28.409  11.164   4.223 -0.3046  0.3388 -0.0818
    1DPPC   C1B17589  28.199  11.317   3.028  0.1799 -0.0355  0.1251
    1DPPC   C2B17590  28.327  11.503   3.389 -0.1438 -0.0658 -0.1849
    1DPPC   C3B17591  28.202  11.603   3.753  0.1711 -0.0323 -0.0468
    1DPPC   C4B17592  28.341  11.798   4.153  0.3502  0.2011 -0.0473
    1DPPC   NC317593  16.685  15.107   2.795 -0.2318  0.0078  0.1489
    1DPPC   PO417594  16.523  15.444   3.029 -0.0247 -0.0945  0.3130
    1DPPC   GL117595  16.579  15.862   3.250  0.0401  0.1268 -0.3708
    1DPPC   GL217596  16.785  15.844   3.458 -0.1564 -0.0457  0.0190
    1DPPC   C1A17597  16.431  16.171   3.539  0.0668  0.1311  0.1527
    1DPPC   C2A17598  16.274  16.177   3.870 -0.0698 -0.0156 -0.0120
    1DPPC   C3A17599  16.476  16.063   4.286  0.2936 -0.2213  0.4307
    1DPPC   C4A17600  16.756  16.187   4.551 -0.1020  0.0213 -0.1340
    1DPPC   C1B17601  16.750  15.885   3.898 -0.2266  0.0954  0.1085
    1DPPC   C2B17602  17.108  15.958   4.223 -0.2702  0.2529 -0.2695
    1DPPC   C3B17603  17.169  16.354   4.314  0.0430 -0.0037 -0.0910
    1DPPC   C4B17604  17.508  16.553   4.705 -0.1696 -0.0701 -0.3444
    1DPPC   NC317605  24.488   8.904   1.675  0.1222 -0.0838 -0.0451
    1DPPC   PO417606  24.473   8.753   2.098  0.1759  0.3027 -0.1693
    1DPPC   GL117607  24.617   8.963   2.461  0.0638  0.0322 -0.1442
    1DPPC   GL217608  24.741   8.763   2.629  0.0763 -0.1174 -0.4896
    1DPPC   C1A17609  24.965   9.062   2.938 -0.2766 -0.2711 -0.1742
    1DPPC   C2A17610  25.290   9.052   3.183  0.1131 -0.1274 -0.0122
    1DPPC   C3A17611  25.239   9.064   3.581  0.0325  0.1735 -0.0985
    1DPPC   C4A17612  25.332   9.203   3.894 -0.1099  0.2263  0.1608
    1DPPC   C1B17613  24.637   8.555   3.102 -0.0245  0.2362 -0.0710
    1DPPC   C2B17614  24.528   8.391   3.592  0.2046  0.0513 -0.2240
    1DPPC   C3B17615  24.371   8.750   3.756 -0.3553 -0.0245  0.0387
    1DPPC   C4B17616  24.244   9.143   3.923 -0.0741 -0.1456  0.0682
    1DPPC   NC317617   2.690  14.776   1.836 -0.1662  0.3014  0.2937
    1DPPC   PO417618   2.636  14.335   2.099 -0.1382  0.0157  0.4031
    1DPPC   GL117619   2.705  14.603   2.342  0.1959 -0.0163  0.0685
    1DPPC   GL217620   2.998  14.479   2.461 -0.1172 -0.5017  0.4615
    1DPPC   C1A17621   2.588  14.685   2.691 -0.0080 -0.2953  0.0750
    1DPPC   C2A17622   2.585  14.791   3.162  0.4016  0.2613 -0.0872
    1DPPC   C3A17623   2.445  14.685   3.563  0.3464  0.1188  0.2556
    1DPPC   C4A17624   2.753  14.698   3.869 -0.1964  0.2289 -0.1258
    1DPPC   C1B17625   2.979  14.475   2.983  0.0832 -0.2799 -0.0911
    1DPPC   C2B17626   2.958  14.495   3.395 -0.0161 -0.0272  0.0418
    1DPPC   C3B17627   3.202  14.487   3.844  0.1764 -0.3660 -0.2888
    1DPPC   C4B17628   3.493  14.801   3.987 -0.1032 -0.0332 -0.0780
    1DPPC   NC317629  28.216  14.707   1.694  0.1316  0.4494  0.0666
    1DPPC   PO417630  28.179  14.343   1.998 -0.1391 -0.1471 -0.0980
    1DPPC   GL117631  28.115  14.670   2.162 -0.1201 -0.1789 -0.0605
    1DPPC   GL217632  28.385  14.816   2.160  0.0075 -0.0110  0.2544
    1DPPC   C1A17633  27.956  14.993   2.461 -0.0591  0.1005  0.0848
    1DPPC   C2A17634  27.799  15.036   2.891  0.0918  0.0545  0.1167
    1DPPC   C3A17635  27.936  15.040   3.335  0.0138  0.1753  0.1950
    1DPPC   C4A17636  27.864  15.080   3.732  0.2802  0.0755 -0.0341
    1DPPC   C1B17637  28.429  14.782   2.594 -0.2442  0.0023  0.0505
    1DPPC   C2B17638  28.272  14.752   3.069  0.1024 -0.0251 -0.0886
    1DPPC   C3B17639  28.321  14.881   3.546  0.0521  0.0018 -0.0134
    1DPPC   C4B17640  28.460  14.857   3.974  0.2739 -0.0161 -0.2377
    1DPPC   NC317641  16.316  17.701   2.497  0.1447 -0.3162  0.1113
    1DPPC   PO417642  16.005  18.056   2.321 -0.2019  0.0073 -0.0773
    1DPPC   GL117643  16.138  18.252   2.742 -0.1233 -0.0005  0.0178
    1DPPC   GL217644  16.017  18.496   2.911  0.0264 -0.2737 -0.0290
    1DPPC   C1A17645  16.343  18.179   3.182 -0.2377 -0.1644 -0.0772
    1DPPC   C2A17646  16.346  18.369   3.645  0.1204  0.3278 -0.2280
    1DPPC   C3A17647  16.437  18.559   4.007 -0.0494 -0.0653 -0.1942
    1DPPC   C4A17648  16.357  18.956   4.293  0.1771 -0.0811 -0.0176
    1DPPC   C1B17649  15.864  18.408   3.279  0.0491  0.2323  0.1165
    1DPPC   C2B17650  15.423  18.163   3.351 -0.1019  0.2827 -0.2037
    1DPPC   C3B17651  15.427  17.762   3.540 -0.0112 -0.3197  0.1482
    1DPPC   C4B17652  15.449  17.354   3.822 -0.1892  0.1245  0.0054
    1DPPC   NC317653  29.958  22.370   2.468  0.1221  0.0978 -0.3749
    1DPPC   PO417654  30.086  21.974   2.307  0.2177  0.1588 -0.2112
    1DPPC   GL117655  30.018  21.971   2.775 -0.1766 -0.1544 -0.2758
    1DPPC   GL217656  30.223  22.234   2.872 -0.0197 -0.1327  0.1054
    1DPPC   C1A17657  29.956  21.799   3.244 -0.0684  0.0152  0.0546
    1DPPC   C2A17658  29.955  21.778   3.668  0.2018 -0.0027 -0.0853
    1DPPC   C3A17659  29.760  21.719   4.001  0.0527  0.0896  0.1584
    1DPPC   C4A17660  29.616  21.728   4.427 -0.0567 -0.0890 -0.0354
    1DPPC   C1B17661  30.312  22.190   3.213  0.0913  0.0803 -0.1473
    1DPPC   C2B17662  30.314  22.066   3.715 -0.0865 -0.0226  0.0575
    1DPPC   C3B17663  30.256  21.878   4.083  0.1232  0.4278  0.3312
    1DPPC   C4B17664  30.320  21.524   4.245 -0.0071 -0.1700 -0.4022
    1DPPC   NC317665   3.606  13.739   1.627  0.0179 -0.0117  0.2914
    1DPPC   PO417666   3.454  13.401   1.911 -0.2261 -0.1587 -0.3993
    1DPPC   GL117667   3.556  13.320   2.292 -0.2519 -0.2574  0.1165
    1DPPC   GL217668   3.847  13.108   2.345  0.0388  0.2177 -0.0628
    1DPPC   C1A17669   3.718  13.622   2.582 -0.2702 -0.2499  0.0163
    1DPPC   C2A17670   3.919  13.824   2.933 -0.1112  0.1198  0.2664
    1DPPC   C3A17671   4.079  14.217   3.000  0.1249 -0.0824 -0.1934
    1DPPC   C4A17672   3.962  14.624   3.037  0.1707 -0.0854  0.1247
    1DPPC   C1B17673   4.002  13.292   2.756 -0.2492 -0.1658  0.2780
    1DPPC   C2B17674   3.805  13.395   3.157  0.2617  0.3133 -0.0825
    1DPPC   C3B17675   3.708  13.324   3.567 -0.0092  0.1259  0.1943
    1DPPC   C4B17676   3.708  13.680   3.875 -0.1264 -0.1128 -0.0785
    1DPPC   NC317677  25.632  17.183   1.759  0.2825 -0.2462 -0.1009
    1DPPC   PO417678  26.015  17.084   1.816  0.1948 -0.1060 -0.4105
    1DPPC   GL117679  25.800  17.197   2.293 -0.1583 -0.1840 -0.1983
    1DPPC   GL217680  25.901  17.094   2.560  0.0943  0.0790 -0.0391
    1DPPC   C1A17681  25.730  17.513   2.594  0.1982  0.1392 -0.0884
    1DPPC   C2A17682  25.721  17.697   3.012 -0.2391  0.0436  0.2959
    1DPPC   C3A17683  25.744  17.708   3.558 -0.0669 -0.1061 -0.4703
    1DPPC   C4A17684  25.688  18.133   3.788  0.2457 -0.0661 -0.0608
    1DPPC   C1B17685  25.679  17.145   2.959  0.2545 -0.0725  0.0695
    1DPPC   C2B17686  25.595  17.211   3.375  0.2118  0.1039  0.0783
    1DPPC   C3B17687  25.571  17.202   3.751  0.1122  0.3463 -0.1806
    1DPPC   C4B17688  25.569  17.191   4.234  0.2844 -0.2908  0.3012
    1DPPC   NC317689   3.856  19.929   1.530 -0.0814  0.3460  0.2337
    1DPPC   PO417690   3.916  19.811   1.877  0.4478 -0.0456 -0.0469
    1DPPC   GL117691   4.015  20.017   2.210 -0.2431  0.0908  0.0457
    1DPPC   GL217692   4.286  20.259   2.172  0.1150  0.1776  0.0004
    1DPPC   C1A17693   4.262  20.072   2.621  0.2519 -0.0676  0.0726
    1DPPC   C2A17694   4.326  20.093   3.013 -0.3942 -0.0643  0.1750
    1DPPC   C3A17695   4.277  20.171   3.440  0.2096  0.0223  0.0908
    1DPPC   C4A17696   4.514  20.069   3.808 -0.1876 -0.7255 -0.2949
    1DPPC   C1B17697   4.563  20.473   2.424 -0.2580  0.1423 -0.1470
    1DPPC   C2B17698   4.794  20.361   2.817  0.0220 -0.1601 -0.2229
    1DPPC   C3B17699   4.809  20.274   3.164  0.1138  0.0321  0.2324
    1DPPC   C4B17700   5.065  20.192   3.553 -0.1197  0.0079 -0.1552
    1DPPC   NC317701  10.260  18.218   2.627  0.0520  0.2022 -0.1733
    1DPPC   PO417702  10.396  18.644   2.626  0.0531  0.0930 -0.1700
    1DPPC   GL117703  10.706  18.411   2.796  0.2035 -0.1924  0.4333
    1DPPC   GL217704  10.964  18.631   2.792 -0.2386  0.0907  0.0867
    1DPPC   C1A17705  10.773  18.327   3.181  0.2391  0.0439  0.0714
    1DPPC   C2A17706  10.788  18.064   3.557  0.0557 -0.1743 -0.1599
    1DPPC   C3A17707  10.619  17.987   3.931 -0.0549 -0.1384  0.0893
    1DPPC   C4A17708  10.521  17.595   4.105 -0.3140 -0.0004 -0.4148
    1DPPC   C1B17709  11.239  19.024   2.926 -0.0535  0.2763  0.3101
    1DPPC   C2B17710  11.310  19.170   3.319 -0.0674 -0.0553 -0.1396
    1DPPC   C3B17711  11.348  19.541   3.558 -0.0442  0.1403  0.0685
    1DPPC   C4B17712  11.414  19.887   3.664 -0.2099 -0.0898 -0.1744
    1DPPC   NC317713  10.285  12.354   2.464 -0.1777  0.0065 -0.0677
    1DPPC   PO417714   9.883  12.372   2.619 -0.2887 -0.3064  0.2765
    1DPPC   GL117715   9.869  12.491   3.173  0.0196 -0.0736 -0.0163
    1DPPC   GL217716  10.110  12.486   3.392  0.1227  0.0414 -0.1823
    1DPPC   C1A17717   9.671  12.438   3.691 -0.1214 -0.4698 -0.1253
    1DPPC   C2A17718   9.429  12.372   4.132  0.1319  0.2334  0.1394
    1DPPC   C3A17719   9.413  12.444   4.481 -0.0061  0.5078 -0.0671
    1DPPC   C4A17720   9.258  12.268   4.858  0.0409 -0.0749  0.1189
    1DPPC   C1B17721  10.154  12.817   3.700 -0.0706  0.0268 -0.0757
    1DPPC   C2B17722  10.012  12.923   4.047 -0.0410  0.0767 -0.1399
    1DPPC   C3B17723   9.986  13.055   4.488 -0.3132 -0.0452  0.1902
    1DPPC   C4B17724  10.124  13.084   4.907  0.0994  0.0336  0.2217
    1DPPC   NC317725   5.633  11.114   1.909  0.2497  0.2830 -0.0749
    1DPPC   PO417726   5.282  11.156   2.278  0.0656  0.0540 -0.0247
    1DPPC   GL117727   5.374  11.138   2.836 -0.1748  0.2289  0.0629
    1DPPC   GL217728   5.342  10.817   3.025 -0.0889 -0.4731  0.0764
    1DPPC   C1A17729   5.477  11.125   3.348 -0.1588  0.1407  0.0818
    1DPPC   C2A17730   5.337  10.894   3.661  0.0960  0.1762 -0.1372
    1DPPC   C3A17731   5.415  10.726   4.101  0.1091  0.2095  0.0074
    1DPPC   C4A17732   5.190  10.483   4.327 -0.0409  0.0914  0.0803
    1DPPC   C1B17733   5.525  10.479   3.203  0.1888  0.0154 -0.0774
    1DPPC   C2B17734   5.526  10.376   3.613 -0.1985  0.1511  0.2419
    1DPPC   C3B17735   5.661  10.366   3.986  0.1015  0.0045  0.0112
    1DPPC   C4B17736   5.708  10.403   4.418 -0.1764  0.1907 -0.1909
    1DPPC   NC317737   1.146  18.738   1.581 -0.1657  0.0615  0.3618
    1DPPC   PO417738   0.868  18.657   1.804 -0.2556 -0.1902  0.1912
    1DPPC   GL117739   0.794  18.467   2.200  0.2785 -0.2952 -0.2713
    1DPPC   GL217740   0.551  18.714   2.454 -0.5211 -0.0592  0.1583
    1DPPC   C1A17741   1.059  18.355   2.649 -0.4415 -0.2022  0.1214
    1DPPC   C2A17742   1.111  18.298   3.048  0.1828 -0.0279 -0.1187
    1DPPC   C3A17743   0.997  18.308   3.474  0.1451 -0.1409  0.0013
    1DPPC   C4A17744   0.942  18.369   3.911  0.0324 -0.0449  0.1452
    1DPPC   C1B17745   0.639  18.606   2.861 -0.0126 -0.0631 -0.0630
    1DPPC   C2B17746   0.700  18.683   3.272  0.0864  0.3075 -0.0304
    1DPPC   C3B17747   0.658  18.739   3.747 -0.0231 -0.2465  0.0859
    1DPPC   C4B17748   0.577  18.912   4.198 -0.0181 -0.2900  0.1432
    1DPPC   NC317749  28.516  22.147   2.091  0.0855 -0.3446 -0.1726
    1DPPC   PO417750  28.089  22.032   2.434 -0.1973  0.1435  0.1024
    1DPPC   GL117751  27.900  21.795   2.660  0.2814 -0.0043  0.2000
    1DPPC   GL217752  27.727  21.550   2.563 -0.1052 -0.3147  0.2826
    1DPPC   C1A17753  27.988  21.838   3.095 -0.1479  0.2083 -0.0427
    1DPPC   C2A17754  28.053  21.894   3.547  0.0892 -0.3064  0.0384
    1DPPC   C3A17755  28.085  21.955   4.015 -0.1272  0.1265  0.1665
    1DPPC   C4A17756  27.685  22.013   4.278 -0.1088 -0.2638  0.0753
    1DPPC   C1B17757  27.778  21.321   2.863 -0.0030  0.2434 -0.0059
    1DPPC   C2B17758  27.818  21.383   3.285  0.0133 -0.0102  0.0118
    1DPPC   C3B17759  27.978  21.411   3.702  0.2177  0.1539  0.3971
    1DPPC   C4B17760  28.283  21.294   3.988 -0.1812 -0.0577 -0.0211
    1DPPC   NC317761   4.554  15.170   2.089  0.1356  0.1753 -0.1833
    1DPPC   PO417762   4.589  15.612   2.084 -0.3556  0.2781 -0.2352
    1DPPC   GL117763   4.496  15.505   2.520  0.0439 -0.0939 -0.3662
    1DPPC   GL217764   4.282  15.213   2.498  0.3494  0.3221  0.0578
    1DPPC   C1A17765   4.390  15.447   2.960  0.0888  0.1734 -0.2677
    1DPPC   C2A17766   4.425  15.254   3.435 -0.1516 -0.1356 -0.2737
    1DPPC   C3A17767   4.302  15.136   3.813 -0.0008  0.1861  0.0471
    1DPPC   C4A17768   3.969  14.894   4.079  0.0948  0.0087  0.1281
    1DPPC   C1B17769   4.002  15.045   2.809  0.4319  0.0380  0.0184
    1DPPC   C2B17770   3.968  15.049   3.243  0.0646  0.0134 -0.0002
    1DPPC   C3B17771   3.821  15.191   3.691 -0.1658 -0.1096 -0.3202
    1DPPC   C4B17772   3.585  15.353   4.037 -0.1327 -0.3351 -0.1010
    1DPPC   NC317773  26.072  12.868   2.406  0.0848 -0.1054 -0.3307
    1DPPC   PO417774  25.737  12.685   2.274  0.0775  0.2252  0.0035
    1DPPC   GL117775  25.624  12.926   2.584  0.1799  0.2077 -0.0834
    1DPPC   GL217776  25.370  12.867   2.583 -0.1958 -0.0845  0.5255
    1DPPC   C1A17777  25.686  12.976   2.981 -0.0942  0.0588 -0.2094
    1DPPC   C2A17778  25.608  12.961   3.467 -0.0207  0.0553 -0.2945
    1DPPC   C3A17779  25.529  12.950   4.006 -0.1807 -0.0832 -0.0376
    1DPPC   C4A17780  25.413  12.978   4.477  0.1088  0.4701 -0.1931
    1DPPC   C1B17781  25.129  12.986   2.928  0.0605 -0.2287 -0.0478
    1DPPC   C2B17782  25.149  13.136   3.225 -0.3742  0.0050 -0.2177
    1DPPC   C3B17783  25.151  13.315   3.697  0.0403 -0.0765  0.0877
    1DPPC   C4B17784  25.214  13.386   4.152 -0.0508 -0.0484  0.5029
    1DPPC   NC317785   0.091   8.467   2.996  0.0607  0.0263 -0.2585
    1DPPC   PO417786   0.433   8.282   2.811 -0.1192 -0.0638 -0.3284
    1DPPC   GL117787   0.546   8.431   3.253  0.1348 -0.1208 -0.1242
    1DPPC   GL217788   0.735   8.699   3.327  0.0470 -0.0343 -0.0351
    1DPPC   C1A17789   0.350   8.634   3.581  0.0505 -0.1160 -0.1398
    1DPPC   C2A17790   0.375   8.580   3.991  0.1641  0.4489 -0.1454
    1DPPC   C3A17791   0.242   8.551   4.371  0.0430 -0.0408 -0.1200
    1DPPC   C4A17792   0.163   8.914   4.581  0.0730  0.3508 -0.0134
    1DPPC   C1B17793   0.832   8.719   3.756  0.0049  0.0130 -0.1782
    1DPPC   C2B17794   0.875   8.585   4.267  0.0377  0.0335  0.2262
    1DPPC   C3B17795   0.867   8.554   4.736 -0.3618  0.0878 -0.0864
    1DPPC   C4B17796   0.897   8.570   5.247  0.3385 -0.0707  0.1534
    1DPPC   NC317797   4.729  10.651   2.249 -0.5146  0.1090 -0.1769
    1DPPC   PO417798   5.056  10.625   2.434  0.1884 -0.0051  0.1242
    1DPPC   GL117799   4.864  10.868   2.811  0.0215  0.2310  0.0145
    1DPPC   GL217800   4.908  11.159   2.774 -0.0016  0.0390 -0.0389
    1DPPC   C1A17801   4.550  10.891   3.115  0.2215 -0.1051 -0.1787
    1DPPC   C2A17802   4.527  10.782   3.574  0.0814 -0.2518  0.5050
    1DPPC   C3A17803   4.334  10.762   3.946  0.3007  0.2945  0.0733
    1DPPC   C4A17804   4.360  11.052   4.191 -0.1808  0.1237  0.0985
    1DPPC   C1B17805   5.016  11.208   3.202  0.0111  0.2874  0.4654
    1DPPC   C2B17806   4.879  11.167   3.584 -0.3538  0.1377  0.1488
    1DPPC   C3B17807   4.902  11.144   3.972 -0.1112 -0.0701  0.0953
    1DPPC   C4B17808   4.818  10.828   4.219 -0.0247  0.2050 -0.1952
    1DPPC   NC317809  12.345  13.468   3.153 -0.1144  0.3861 -0.1031
    1DPPC   PO417810  12.234  13.021   3.208 -0.2058 -0.0020  0.2520
    1DPPC   GL117811  12.271  13.156   3.571 -0.2549  0.1855  0.1703
    1DPPC   GL217812  12.465  13.327   3.646  0.2494  0.0617 -0.3406
    1DPPC   C1A17813  12.010  12.957   3.930  0.0192  0.1107  0.0537
    1DPPC   C2A17814  11.886  12.838   4.377 -0.0177  0.1195 -0.2627
    1DPPC   C3A17815  11.666  12.892   4.682 -0.0258 -0.0774 -0.3926
    1DPPC   C4A17816  11.806  13.086   5.149 -0.1724 -0.3354 -0.1159
    1DPPC   C1B17817  12.345  13.542   3.946 -0.0791  0.4109  0.2168
    1DPPC   C2B17818  12.223  13.751   4.207  0.0291 -0.0248  0.1555
    1DPPC   C3B17819  12.200  13.747   4.652 -0.0047 -0.2222  0.0832
    1DPPC   C4B17820  12.179  14.200   4.911  0.4293  0.0312  0.0130
    1DPPC   NC317821   3.991  25.129   2.319  0.1385 -0.2226  0.0641
    1DPPC   PO417822   3.730  24.890   2.653  0.1636  0.0149  0.1555
    1DPPC   GL117823   3.848  24.636   3.043  0.0906 -0.0997 -0.0720
    1DPPC   GL217824   4.209  24.652   3.159 -0.1440  0.2081  0.1121
    1DPPC   C1A17825   3.882  24.263   3.255 -0.0718  0.0603 -0.1708
    1DPPC   C2A17826   3.965  24.088   3.666 -0.2751  0.0764 -0.1484
    1DPPC   C3A17827   4.048  24.032   4.052 -0.0509 -0.1673 -0.4136
    1DPPC   C4A17828   4.164  24.222   4.452  0.1860 -0.1872 -0.2303
    1DPPC   C1B17829   4.189  24.554   3.635  0.1206  0.2551  0.0486
    1DPPC   C2B17830   3.839  24.477   3.974 -0.1910  0.1742 -0.2895
    1DPPC   C3B17831   3.716  24.402   4.243  0.0708  0.0981 -0.1011
    1DPPC   C4B17832   3.340  24.335   4.475  0.0177  0.2602  0.0169
    1DPPC   NC317833  30.073  18.991   1.444  0.0268 -0.0606 -0.1748
    1DPPC   PO417834   0.020  19.047   1.806 -0.1768  0.0273 -0.0140
    1DPPC   GL117835   0.017  18.977   2.225 -0.2625 -0.0422 -0.1266
    1DPPC   GL217836  30.227  18.732   2.324  0.2325  0.0699 -0.2283
    1DPPC   C1A17837   0.188  19.085   2.595 -0.0617  0.0436 -0.2658
    1DPPC   C2A17838   0.259  19.000   3.046  0.0399 -0.3129 -0.0504
    1DPPC   C3A17839   0.215  18.917   3.430 -0.2273  0.1156  0.1191
    1DPPC   C4A17840   0.087  18.801   3.724  0.0322 -0.1723 -0.1196
    1DPPC   C1B17841  30.021  18.788   2.685  0.0601  0.0842  0.0450
    1DPPC   C2B17842  30.093  18.794   3.052 -0.2009 -0.3512 -0.1075
    1DPPC   C3B17843  30.064  18.608   3.480  0.0766 -0.2426 -0.1551
    1DPPC   C4B17844  29.887  18.584   3.899 -0.3416  0.1694 -0.1136
    1DPPC   NC317845   4.131  19.130   1.199  0.2588 -0.0870  0.4454
    1DPPC   PO417846   4.091  19.441   1.556 -0.2592  0.0296 -0.1230
    1DPPC   GL117847   4.187  19.330   2.021 -0.0036 -0.2670 -0.0354
    1DPPC   GL217848   4.283  19.085   2.142 -0.4761 -0.1578  0.0911
    1DPPC   C1A17849   4.271  19.596   2.408 -0.1172 -0.0229 -0.0449
    1DPPC   C2A17850   4.364  19.598   2.827  0.2063 -0.0144  0.2118
    1DPPC   C3A17851   4.657  19.764   3.060 -0.0878  0.2218  0.4190
    1DPPC   C4A17852   4.695  19.891   3.426  0.3271 -0.1107 -0.0427
    1DPPC   C1B17853   4.545  19.190   2.526 -0.0230  0.0771 -0.2090
    1DPPC   C2B17854   4.800  19.297   2.916 -0.0699  0.4690 -0.0407
    1DPPC   C3B17855   4.707  19.168   3.303 -0.1383 -0.0365 -0.0296
    1DPPC   C4B17856   4.902  19.506   3.481 -0.1238 -0.3129  0.4540
    1DPPC   NC317857   1.193  16.779   2.129 -0.2817  0.2114  0.0276
    1DPPC   PO417858   1.462  17.113   1.990  0.1710 -0.0624  0.0429
    1DPPC   GL117859   1.558  16.986   2.377  0.1425  0.2730  0.3476
    1DPPC   GL217860   1.392  16.835   2.551 -0.0817  0.0742  0.0399
    1DPPC   C1A17861   1.915  17.034   2.679 -0.1805 -0.0189 -0.2810
    1DPPC   C2A17862   1.944  17.153   3.113 -0.0130 -0.1207  0.1416
    1DPPC   C3A17863   1.902  17.172   3.581 -0.1887 -0.1611  0.0115
    1DPPC   C4A17864   1.936  17.498   3.887  0.1395 -0.0757 -0.1612
    1DPPC   C1B17865   1.465  16.904   2.996  0.0212 -0.3250  0.0252
    1DPPC   C2B17866   1.725  16.767   3.370 -0.0552  0.1205 -0.2917
    1DPPC   C3B17867   1.797  16.673   3.833  0.0297  0.0385 -0.1478
    1DPPC   C4B17868   1.736  17.064   4.112  0.6589 -0.0704  0.0677
    1DPPC   NC317869  27.737  25.841   2.542 -0.1312 -0.2204 -0.0012
    1DPPC   PO417870  27.324  25.633   2.741  0.0303 -0.2923 -0.1483
    1DPPC   GL117871  27.407  25.692   3.161 -0.1024  0.2368  0.0257
    1DPPC   GL217872  27.240  25.966   3.337 -0.0415  0.0144  0.2943
    1DPPC   C1A17873  27.428  25.411   3.525  0.0646  0.1348  0.0616
    1DPPC   C2A17874  27.318  25.145   3.882 -0.4074  0.0537  0.1935
    1DPPC   C3A17875  26.989  25.050   4.043 -0.0092  0.1094  0.1976
    1DPPC   C4A17876  26.627  25.090   4.202  0.0013 -0.0101 -0.1035
    1DPPC   C1B17877  27.429  25.863   3.719 -0.2836  0.2269  0.1692
    1DPPC   C2B17878  27.343  25.615   4.133  0.4499 -0.0452 -0.0573
    1DPPC   C3B17879  27.249  25.277   4.420 -0.0901 -0.3126  0.0125
    1DPPC   C4B17880  26.970  24.977   4.555 -0.1749  0.0175 -0.3850
    1DPPC   NC317881   6.464  16.475   1.947  0.2393  0.2737  0.0174
    1DPPC   PO417882   6.738  16.183   2.034  0.0216  0.2458 -0.0514
    1DPPC   GL117883   6.864  16.453   2.448 -0.0329  0.1910  0.0072
    1DPPC   GL217884   6.558  16.885   2.331  0.0778 -0.2702  0.0170
    1DPPC   C1A17885   6.613  16.595   2.868  0.3388  0.2003 -0.1048
    1DPPC   C2A17886   6.427  16.639   3.305 -0.2825 -0.1703  0.0460
    1DPPC   C3A17887   6.152  16.975   3.478  0.2095  0.1180 -0.1688
    1DPPC   C4A17888   5.778  17.196   3.563 -0.0004 -0.3584  0.2735
    1DPPC   C1B17889   6.350  17.256   2.539  0.1326 -0.0584 -0.0617
    1DPPC   C2B17890   6.529  17.624   2.838 -0.2887 -0.1474  0.1066
    1DPPC   C3B17891   6.566  17.708   3.256 -0.0387 -0.0563 -0.3623
    1DPPC   C4B17892   6.826  17.730   3.535 -0.1599 -0.0889 -0.0071
    1DPPC   NC317893   5.183  17.190   2.191 -0.1126 -0.1628  0.2250
    1DPPC   PO417894   5.075  17.555   1.896  0.0535 -0.1036  0.3315
    1DPPC   GL117895   4.868  17.524   2.285  0.3420  0.0934  0.0051
    1DPPC   GL217896   4.629  17.336   2.303 -0.2170  0.1275  0.0337
    1DPPC   C1A17897   4.910  17.451   2.735 -0.1599  0.0249 -0.0410
    1DPPC   C2A17898   4.772  17.498   3.122 -0.0538  0.2793  0.1070
    1DPPC   C3A17899   4.470  17.475   3.459  0.1134  0.0980  0.2695
    1DPPC   C4A17900   4.209  17.530   3.811  0.1673  0.2411  0.1369
    1DPPC   C1B17901   4.415  17.132   2.635 -0.1555 -0.1079  0.0963
    1DPPC   C2B17902   4.338  17.167   3.019 -0.2223  0.0521 -0.0516
    1DPPC   C3B17903   4.133  17.038   3.437 -0.4513  0.2632  0.2481
    1DPPC   C4B17904   4.280  16.982   3.815  0.0367 -0.0104 -0.4280
    1DPPC   NC317905   0.780   9.638   2.577 -0.0720 -0.0541 -0.1729
    1DPPC   PO417906   1.133   9.471   2.816  0.1502 -0.0349  0.2302
    1DPPC   GL117907   1.446   9.589   3.126 -0.2187  0.1234 -0.0110
    1DPPC   GL217908   1.283   9.508   3.320 -0.0787  0.1380 -0.1468
    1DPPC   C1A17909   1.569   9.841   3.624 -0.1479  0.2534  0.3281
    1DPPC   C2A17910   1.598   9.911   4.039  0.2122  0.2711  0.0772
    1DPPC   C3A17911   1.710   9.775   4.387 -0.1813  0.0414  0.4293
    1DPPC   C4A17912   1.761   9.993   4.764 -0.0805  0.0966  0.2479
    1DPPC   C1B17913   1.260   9.484   3.759 -0.0973 -0.2576  0.1305
    1DPPC   C2B17914   1.352   9.435   4.150 -0.2089 -0.1461 -0.1213
    1DPPC   C3B17915   1.465   9.319   4.541 -0.1338 -0.0140 -0.1360
    1DPPC   C4B17916   1.917   9.393   4.789 -0.0349 -0.1039  0.0456
    1DPPC   NC317917  28.833  21.507   1.652 -0.2281  0.2825  0.1504
    1DPPC   PO417918  29.161  21.418   1.952 -0.1331  0.1962  0.1855
    1DPPC   GL117919  29.031  21.442   2.391  0.0559  0.1935  0.0491
    1DPPC   GL217920  29.038  21.602   2.616 -0.0276 -0.2890 -0.1654
    1DPPC   C1A17921  28.695  21.210   2.671 -0.1070  0.0846 -0.0743
    1DPPC   C2A17922  28.702  21.165   3.126 -0.1454  0.0167 -0.0009
    1DPPC   C3A17923  28.409  21.482   3.310 -0.2403  0.0876  0.0778
    1DPPC   C4A17924  28.502  21.750   3.793 -0.4086  0.1197  0.1073
    1DPPC   C1B17925  28.972  21.733   2.978  0.2225 -0.0339 -0.2761
    1DPPC   C2B17926  28.896  21.607   3.454 -0.0243  0.1132  0.0070
    1DPPC   C3B17927  28.740  21.270   3.640 -0.0234 -0.1264  0.2423
    1DPPC   C4B17928  28.559  20.966   3.771  0.1089 -0.3630  0.1820
    1DPPC   NC317929   3.356  11.116   2.468  0.2651 -0.1234 -0.0211
    1DPPC   PO417930   3.480  10.693   2.355  0.0928 -0.0245  0.1112
    1DPPC   GL117931   3.769  10.789   2.699  0.1498 -0.1937  0.0364
    1DPPC   GL217932   3.591  11.163   2.894 -0.0808 -0.0522 -0.0864
    1DPPC   C1A17933   4.062  10.946   3.046 -0.4417  0.3565  0.0784
    1DPPC   C2A17934   4.004  11.008   3.500 -0.2582  0.2703 -0.0771
    1DPPC   C3A17935   3.886  11.021   3.905 -0.1800 -0.0962  0.1915
    1DPPC   C4A17936   3.913  11.234   4.337  0.2503  0.2143  0.0296
    1DPPC   C1B17937   3.780  11.350   3.303  0.1239 -0.1671  0.1447
    1DPPC   C2B17938   3.696  11.401   3.694 -0.2973 -0.1004 -0.2385
    1DPPC   C3B17939   3.696  11.587   4.002  0.0967 -0.0475 -0.0484
    1DPPC   C4B17940   3.708  11.700   4.389 -0.0028 -0.2996 -0.0124
    1DPPC   NC317941   0.698  24.062   1.867 -0.0301 -0.0852  0.0573
    1DPPC   PO417942   0.589  24.034   2.280 -0.0397 -0.1621 -0.2535
    1DPPC   GL117943   0.340  23.940   2.691  0.2584  0.0275  0.0860
    1DPPC   GL217944   0.320  23.596   2.885  0.1541  0.2182  0.0815
    1DPPC   C1A17945   0.380  24.007   3.171 -0.3117  0.0151 -0.0710
    1DPPC   C2A17946   0.358  24.118   3.649 -0.1202  0.0599 -0.0184
    1DPPC   C3A17947   0.414  24.183   4.050  0.1367  0.1340  0.2155
    1DPPC   C4A17948   0.762  24.168   4.437  0.1117 -0.1435  0.0854
    1DPPC   C1B17949   0.582  23.594   3.153 -0.0175  0.1306  0.3097
    1DPPC   C2B17950   0.577  23.637   3.623 -0.0449  0.0046  0.1139
    1DPPC   C3B17951   0.420  23.653   4.053 -0.3445 -0.0943  0.0815
    1DPPC   C4B17952   0.390  23.774   4.432  0.1434 -0.2264 -0.1971
    1DPPC   NC317953  27.994  12.022   2.133 -0.2650  0.1131  0.0135
    1DPPC   PO417954  27.801  12.354   2.338 -0.1508 -0.1788  0.2743
    1DPPC   GL117955  27.979  12.503   2.631 -0.2247  0.1287  0.0689
    1DPPC   GL217956  28.261  12.763   2.600 -0.1990  0.0358 -0.1872
    1DPPC   C1A17957  27.845  12.450   3.102 -0.1782 -0.0589  0.1001
    1DPPC   C2A17958  27.732  12.463   3.638  0.1860 -0.0576  0.0884
    1DPPC   C3A17959  27.647  12.554   4.023 -0.3107 -0.0618 -0.0735
    1DPPC   C4A17960  27.412  12.893   4.235 -0.2342 -0.0561  0.1083
    1DPPC   C1B17961  28.355  12.688   3.010  0.2009 -0.2214  0.1444
    1DPPC   C2B17962  28.336  12.499   3.438  0.0868  0.5776  0.1093
    1DPPC   C3B17963  28.163  12.589   3.936 -0.0122  0.2564  0.2469
    1DPPC   C4B17964  28.401  12.854   4.333 -0.1172 -0.1713  0.1165
    1DPPC   NC317965  28.341  16.227   2.135 -0.3470 -0.1608 -0.1157
    1DPPC   PO417966  27.917  16.113   2.136 -0.0058  0.0214 -0.0323
    1DPPC   GL117967  28.033  16.375   2.542 -0.0685 -0.1307  0.1368
    1DPPC   GL217968  28.380  16.323   2.589 -0.4063  0.1164 -0.0216
    1DPPC   C1A17969  27.996  16.405   2.946  0.0420  0.1395 -0.0347
    1DPPC   C2A17970  27.998  16.556   3.360  0.2704 -0.0165  0.0537
    1DPPC   C3A17971  27.898  16.725   3.840 -0.2162 -0.0211  0.3224
    1DPPC   C4A17972  27.956  16.724   4.195  0.3188  0.0530  0.1740
    1DPPC   C1B17973  28.515  16.217   2.967 -0.0488 -0.0444 -0.0485
    1DPPC   C2B17974  28.496  16.304   3.389  0.0836  0.0931  0.4150
    1DPPC   C3B17975  28.665  16.356   3.709 -0.0601 -0.2864 -0.0391
    1DPPC   C4B17976  28.843  16.399   4.055  0.0180  0.0423  0.2402
    1DPPC   NC317977   5.619  11.604   2.096  0.3481  0.1061  0.0100
    1DPPC   PO417978   5.856  11.245   2.375  0.0845  0.0300  0.2744
    1DPPC   GL117979   5.826  10.970   2.781  0.0798 -0.0701 -0.2306
    1DPPC   GL217980   5.825  11.328   3.044 -0.0312 -0.0686 -0.0982
    1DPPC   C1A17981   5.867  10.878   3.278  0.2528  0.0345 -0.2486
    1DPPC   C2A17982   5.810  10.878   3.689  0.0982  0.0367 -0.0420
    1DPPC   C3A17983   5.902  10.858   4.152 -0.1259  0.1028 -0.1335
    1DPPC   C4A17984   5.921  10.852   4.585 -0.1008 -0.0204 -0.0662
    1DPPC   C1B17985   5.877  11.403   3.471  0.2048  0.0781  0.1439
    1DPPC   C2B17986   6.043  11.294   3.936  0.1259 -0.0183 -0.1733
    1DPPC   C3B17987   6.357  11.187   4.369  0.0369  0.0352  0.2689
    1DPPC   C4B17988   6.656  10.951   4.394  0.3546  0.2179 -0.1311
    1DPPC   NC317989   3.225  17.249   1.691 -0.1342 -0.0475  0.0771
    1DPPC   PO417990   3.317  16.717   1.911 -0.3528 -0.0825  0.4354
    1DPPC   GL117991   3.502  16.485   2.214 -0.4287 -0.0120 -0.0689
    1DPPC   GL217992   3.516  16.188   2.223 -0.1007  0.0962 -0.0846
    1DPPC   C1A17993   3.512  16.617   2.663  0.1080 -0.0493  0.0830
    1DPPC   C2A17994   3.552  16.673   3.121  0.0822  0.3004 -0.0679
    1DPPC   C3A17995   3.637  17.035   3.348  0.0084  0.0548  0.0652
    1DPPC   C4A17996   3.800  17.127   3.779  0.2068 -0.1667  0.0842
    1DPPC   C1B17997   3.398  16.158   2.620 -0.0247  0.1871 -0.1247
    1DPPC   C2B17998   3.449  16.224   2.975  0.0918  0.0830 -0.3514
    1DPPC   C3B17999   3.485  16.238   3.405 -0.0645  0.0044 -0.4054
    1DPPC   C4B18000   3.481  16.199   3.832  0.0204 -0.1943  0.0472
    1DPPC   NC318001   4.697  21.907   1.312 -0.2052  0.0296 -0.2410
    1DPPC   PO418002   4.772  22.193   1.625  0.2947  0.1719 -0.2530
    1DPPC   GL118003   4.762  22.072   1.969 -0.2594  0.0129  0.0277
    1DPPC   GL218004   5.054  22.037   2.062  0.0096 -0.0590  0.1667
    1DPPC   C1A18005   4.876  21.607   2.142 -0.0536  0.0074  0.0505
    1DPPC   C2A18006   5.109  21.556   2.498 -0.2564  0.0089 -0.0774
    1DPPC   C3A18007   5.171  21.455   2.939 -0.0158  0.0577 -0.0882
    1DPPC   C4A18008   5.199  21.800   3.148 -0.1892  0.0917  0.1977
    1DPPC   C1B18009   5.281  22.054   2.363  0.0743  0.0904 -0.1049
    1DPPC   C2B18010   5.429  22.203   2.871  0.0079  0.0271  0.2546
    1DPPC   C3B18011   5.173  22.339   3.260 -0.1522 -0.3086 -0.1299
    1DPPC   C4B18012   5.304  22.164   3.581 -0.0814  0.0775 -0.1180
    1DPPC   NC318013  25.519  17.881   1.461  0.0878 -0.2517 -0.1062
    1DPPC   PO418014  25.456  18.028   1.955  0.0776 -0.1184 -0.3476
    1DPPC   GL118015  25.629  18.284   2.208 -0.0401 -0.2760 -0.0876
    1DPPC   GL218016  25.901  18.407   2.229  0.1063 -0.2383  0.1198
    1DPPC   C1A18017  25.545  18.525   2.580  0.0257 -0.0788 -0.0078
    1DPPC   C2A18018  25.515  18.678   2.924  0.0613 -0.1504  0.1174
    1DPPC   C3A18019  25.649  18.567   3.369  0.2134 -0.3222  0.1384
    1DPPC   C4A18020  25.564  18.615   3.696  0.1963 -0.1225 -0.0464
    1DPPC   C1B18021  25.901  18.232   2.662  0.0527  0.1341  0.0856
    1DPPC   C2B18022  25.826  18.197   3.075 -0.1206 -0.1825 -0.4250
    1DPPC   C3B18023  25.999  18.219   3.416 -0.2884 -0.0811  0.2722
    1DPPC   C4B18024  26.402  18.280   3.645  0.0778  0.2186 -0.0706
    1DPPC   NC318025  26.276  18.431   1.957 -0.0760 -0.0406  0.2281
    1DPPC   PO418026  26.230  18.024   2.029 -0.1175  0.0615 -0.0518
    1DPPC   GL118027  26.338  18.222   2.416 -0.0057 -0.1674 -0.2100
    1DPPC   GL218028  26.500  18.519   2.395 -0.2014 -0.0624 -0.0076
    1DPPC   C1A18029  26.416  18.293   2.894 -0.3573 -0.1697 -0.1627
    1DPPC   C2A18030  26.704  18.477   3.205 -0.3865  0.0517 -0.1758
    1DPPC   C3A18031  26.913  18.486   3.589  0.0735  0.1314  0.0407
    1DPPC   C4A18032  26.912  18.273   3.994 -0.0802 -0.2929 -0.0799
    1DPPC   C1B18033  26.719  18.640   2.712  0.1124 -0.0239  0.0346
    1DPPC   C2B18034  26.653  18.910   2.975 -0.0350 -0.2051 -0.0124
    1DPPC   C3B18035  26.739  19.066   3.390 -0.0697  0.0973 -0.2270
    1DPPC   C4B18036  26.445  19.288   3.681 -0.2643 -0.2191  0.0234
    1DPPC   NC318037   4.946  12.653   1.977  0.1691 -0.2137  0.1915
    1DPPC   PO418038   5.028  12.997   2.142  0.3240 -0.0800 -0.0378
    1DPPC   GL118039   4.734  12.970   2.464  0.0530  0.3561 -0.2631
    1DPPC   GL218040   4.378  13.093   2.483 -0.0258  0.0353 -0.3258
    1DPPC   C1A18041   4.669  12.622   2.803 -0.2415  0.3992  0.2906
    1DPPC   C2A18042   4.723  12.342   3.229 -0.0642  0.0596  0.1101
    1DPPC   C3A18043   4.756  12.436   3.684  0.3464  0.1417  0.0338
    1DPPC   C4A18044   4.906  12.319   4.067  0.2886  0.3858  0.0099
    1DPPC   C1B18045   4.458  13.063   2.906 -0.0437 -0.1288  0.0789
    1DPPC   C2B18046   4.515  12.930   3.257 -0.0786 -0.0164 -0.0672
    1DPPC   C3B18047   4.512  12.859   3.638  0.1425  0.0989 -0.1116
    1DPPC   C4B18048   4.559  13.109   4.097  0.1118  0.0629  0.6580
    1DPPC   NC318049  27.482  19.871   1.613 -0.2602  0.2854 -0.0028
    1DPPC   PO418050  27.221  19.579   1.677 -0.1778 -0.0243 -0.0001
    1DPPC   GL118051  27.210  19.834   2.043  0.1223  0.0958 -0.0425
    1DPPC   GL218052  27.013  19.919   2.170 -0.1133  0.2115  0.0624
    1DPPC   C1A18053  27.289  19.792   2.544 -0.0863 -0.0427  0.0603
    1DPPC   C2A18054  27.212  19.870   2.922  0.0048  0.0813 -0.0467
    1DPPC   C3A18055  27.189  19.896   3.368  0.0134 -0.0553  0.2895
    1DPPC   C4A18056  27.248  19.749   3.777  0.1255  0.2470  0.2183
    1DPPC   C1B18057  26.999  20.207   2.443 -0.0997 -0.0599 -0.1353
    1DPPC   C2B18058  27.002  20.295   2.802  0.0065  0.0726  0.0879
    1DPPC   C3B18059  26.953  20.319   3.246 -0.3037 -0.2983 -0.0838
    1DPPC   C4B18060  26.715  20.092   3.628  0.3915 -0.1474  0.1781
    1DPPC   NC318061  27.638  15.722   1.996 -0.2089 -0.1378  0.2593
    1DPPC   PO418062  27.370  15.270   2.013 -0.0861 -0.2399 -0.3658
    1DPPC   GL118063  27.458  15.321   2.388  0.0947  0.1908  0.0534
    1DPPC   GL218064  27.403  15.015   2.460 -0.0256  0.0187  0.1184
    1DPPC   C1A18065  27.684  15.517   2.722  0.3371 -0.1092  0.1156
    1DPPC   C2A18066  27.684  15.473   3.162 -0.0815 -0.0705  0.1650
    1DPPC   C3A18067  27.824  15.573   3.580 -0.1895  0.0765  0.2516
    1DPPC   C4A18068  27.774  15.791   4.000  0.0178  0.0640  0.2353
    1DPPC   C1B18069  27.332  14.937   2.862  0.1647 -0.0997 -0.2514
    1DPPC   C2B18070  27.360  15.128   3.222  0.1317  0.1195  0.2833
    1DPPC   C3B18071  27.430  15.117   3.625  0.1262  0.0668  0.3464
    1DPPC   C4B18072  27.539  15.020   4.106 -0.0077  0.0540  0.0300
    1DPPC   NC318073   4.192  15.854   1.768  0.2751  0.0430 -0.1456
    1DPPC   PO418074   3.951  16.098   1.885 -0.1261  0.2217 -0.3142
    1DPPC   GL118075   3.890  15.873   2.201 -0.0935 -0.0354 -0.1385
    1DPPC   GL218076   4.254  15.901   2.278  0.2676 -0.1871 -0.3724
    1DPPC   C1A18077   3.951  15.634   2.661 -0.0530  0.0907  0.4192
    1DPPC   C2A18078   3.901  15.501   3.068 -0.0227  0.1189 -0.3649
    1DPPC   C3A18079   3.976  15.574   3.417 -0.0610 -0.1042  0.1319
    1DPPC   C4A18080   3.857  15.732   3.852  0.2971 -0.1211  0.0187
    1DPPC   C1B18081   4.344  15.958   2.633 -0.0156  0.1627 -0.1031
    1DPPC   C2B18082   4.376  15.876   3.128 -0.2423 -0.1473  0.0070
    1DPPC   C3B18083   4.610  15.774   3.559 -0.0001 -0.0095 -0.2014
    1DPPC   C4B18084   4.468  15.692   3.962 -0.0766 -0.0438  0.0962
    1DPPC   NC318085   2.845  23.440   2.583 -0.0608  0.1710  0.0331
    1DPPC   PO418086   2.499  23.312   2.428 -0.0609 -0.0756  0.1804
    1DPPC   GL118087   2.454  23.056   2.763 -0.1374 -0.1026 -0.0054
    1DPPC   GL218088   2.755  23.085   2.929 -0.0478  0.1299  0.0384
    1DPPC   C1A18089   2.265  23.031   3.211  0.1257 -0.0821  0.0442
    1DPPC   C2A18090   2.281  22.930   3.666  0.1320 -0.1796 -0.2344
    1DPPC   C3A18091   2.457  22.834   4.018  0.0722  0.1896  0.2937
    1DPPC   C4A18092   2.513  22.954   4.372  0.1855 -0.2302 -0.0228
    1DPPC   C1B18093   3.133  22.923   3.209 -0.1915 -0.0465  0.2060
    1DPPC   C2B18094   3.174  22.855   3.606  0.1898  0.3164  0.2303
    1DPPC   C3B18095   3.120  22.786   4.058 -0.0251 -0.0943  0.1554
    1DPPC   C4B18096   2.820  22.489   4.277  0.0711 -0.0979 -0.1103
    1DPPC   NC318097   0.257  11.234   2.400  0.4058 -0.0372  0.1518
    1DPPC   PO418098  30.195  11.390   2.296  0.2760  0.0344 -0.1649
    1DPPC   GL118099  30.096  11.423   2.636 -0.2497 -0.0082 -0.0628
    1DPPC   GL218100  30.272  11.245   2.769 -0.2371 -0.1390  0.0445
    1DPPC   C1A18101  29.903  11.772   2.914 -0.0654  0.3998  0.0398
    1DPPC   C2A18102  29.990  11.829   3.364 -0.2635 -0.0067  0.0218
    1DPPC   C3A18103  29.868  11.776   3.777  0.0762 -0.2223  0.0557
    1DPPC   C4A18104  29.523  11.926   3.931  0.0383  0.2197 -0.0212
    1DPPC   C1B18105  30.237  11.258   3.151 -0.3768  0.0698 -0.1312
    1DPPC   C2B18106  30.060  11.326   3.558 -0.2052 -0.2903  0.3355
    1DPPC   C3B18107  29.992  11.296   3.935 -0.2530  0.0115 -0.0957
    1DPPC   C4B18108  29.936  11.203   4.368 -0.0000  0.2871  0.0980
    1DPPC   NC318109   2.399  20.781   1.308  0.2118  0.1393 -0.1597
    1DPPC   PO418110   2.432  20.766   1.728 -0.0422 -0.1462 -0.0048
    1DPPC   GL118111   2.431  20.666   2.185  0.0250 -0.3780 -0.2520
    1DPPC   GL218112   2.628  20.433   2.346  0.3009 -0.0552 -0.0497
    1DPPC   C1A18113   2.272  20.543   2.683  0.0405 -0.1733  0.0357
    1DPPC   C2A18114   2.107  20.620   3.111 -0.3512  0.4149 -0.0311
    1DPPC   C3A18115   2.118  20.720   3.575  0.2272 -0.0051  0.1929
    1DPPC   C4A18116   1.892  20.877   3.972 -0.1262  0.1533 -0.0234
    1DPPC   C1B18117   2.742  20.509   2.763  0.1224 -0.0902  0.0968
    1DPPC   C2B18118   2.622  20.481   3.192 -0.2951  0.1505 -0.1352
    1DPPC   C3B18119   2.763  20.253   3.525 -0.0856  0.0511 -0.0681
    1DPPC   C4B18120   2.573  20.208   3.940 -0.3692  0.1581  0.0736
    1DPPC   NC318121  24.774  19.531   1.779  0.2085 -0.1626  0.1354
    1DPPC   PO418122  24.925  19.278   1.850  0.2550 -0.2993  0.1480
    1DPPC   GL118123  24.663  19.144   2.185 -0.0088 -0.0394 -0.0382
    1DPPC   GL218124  24.369  19.208   2.324 -0.0135  0.0758 -0.0858
    1DPPC   C1A18125  24.645  18.940   2.664  0.1743 -0.0731  0.1440
    1DPPC   C2A18126  24.617  18.699   3.115 -0.1916 -0.1147  0.1029
    1DPPC   C3A18127  24.675  18.880   3.541 -0.0845  0.0936 -0.2145
    1DPPC   C4A18128  24.328  18.973   3.781  0.0502  0.1480 -0.1208
    1DPPC   C1B18129  24.146  19.232   2.662  0.0813  0.1534 -0.0918
    1DPPC   C2B18130  24.089  19.324   3.036 -0.0890 -0.4341 -0.0942
    1DPPC   C3B18131  24.074  19.385   3.474 -0.3059 -0.1518  0.4151
    1DPPC   C4B18132  23.918  19.292   3.848 -0.0537 -0.0239  0.0614
    1DPPC   NC318133   7.035  13.919   2.271  0.0731 -0.0657  0.0292
    1DPPC   PO418134   7.044  13.497   2.432  0.0152  0.0178 -0.1700
    1DPPC   GL118135   6.967  13.447   2.871  0.1642  0.3753  0.0694
    1DPPC   GL218136   7.106  13.743   2.885  0.1212  0.0437 -0.0547
    1DPPC   C1A18137   6.798  13.412   3.241 -0.3224 -0.3946  0.2844
    1DPPC   C2A18138   6.745  13.431   3.679 -0.2104  0.0236  0.1082
    1DPPC   C3A18139   6.677  13.336   4.169 -0.1121 -0.1490  0.0837
    1DPPC   C4A18140   6.573  13.200   4.452  0.2317 -0.1856  0.0320
    1DPPC   C1B18141   7.116  13.818   3.333  0.0255  0.0123  0.2376
    1DPPC   C2B18142   7.169  13.953   3.742  0.1018  0.1885 -0.1788
    1DPPC   C3B18143   7.214  14.031   4.177 -0.0812 -0.1955 -0.0167
    1DPPC   C4B18144   7.157  13.956   4.587 -0.0218  0.0684  0.2725
    1DPPC   NC318145  27.325  17.650   1.487  0.2497  0.1128 -0.0534
    1DPPC   PO418146  27.729  17.432   1.641  0.1104  0.0689  0.0959
    1DPPC   GL118147  27.702  17.398   2.048  0.2416 -0.1068  0.2924
    1DPPC   GL218148  27.849  17.426   2.203 -0.0718 -0.1619  0.1168
    1DPPC   C1A18149  27.331  17.188   2.368 -0.2248  0.0414  0.1298
    1DPPC   C2A18150  27.211  17.150   2.773  0.0889 -0.1706 -0.0367
    1DPPC   C3A18151  27.184  17.116   3.158  0.2346 -0.4595  0.0167
    1DPPC   C4A18152  26.952  16.938   3.489  0.0978 -0.0697 -0.1672
    1DPPC   C1B18153  27.683  17.590   2.586  0.0936  0.0137 -0.0924
    1DPPC   C2B18154  27.622  17.473   3.031  0.0550 -0.0252  0.1263
    1DPPC   C3B18155  27.611  17.457   3.446  0.2106 -0.3841 -0.1667
    1DPPC   C4B18156  27.641  17.629   3.805 -0.1960 -0.2298 -0.0005
    1DPPC   NC318157   5.159  21.039   1.079  0.3071 -0.1146 -0.0062
    1DPPC   PO418158   5.261  21.248   1.482 -0.1636 -0.2215  0.0237
    1DPPC   GL118159   5.219  21.059   1.904  0.0912  0.0392  0.2624
    1DPPC   GL218160   5.289  20.644   2.017  0.2892  0.1965  0.1536
    1DPPC   C1A18161   5.062  21.124   2.264  0.3119 -0.2767  0.0935
    1DPPC   C2A18162   5.000  20.960   2.583  0.0582  0.0049  0.0812
    1DPPC   C3A18163   4.972  20.953   2.982 -0.0204  0.1836  0.0566
    1DPPC   C4A18164   4.895  21.252   3.290  0.2505  0.0589  0.0706
    1DPPC   C1B18165   5.399  20.670   2.423 -0.0054 -0.0296  0.0187
    1DPPC   C2B18166   5.286  20.601   2.896  0.0740  0.5324  0.1040
    1DPPC   C3B18167   5.236  20.642   3.423 -0.1234  0.1146 -0.1115
    1DPPC   C4B18168   5.145  20.989   3.565 -0.0934 -0.1168 -0.0347
    1DPPC   NC318169  12.318   3.472   2.715  0.4258 -0.0703  0.1610
    1DPPC   PO418170  12.637   3.114   2.575  0.2015 -0.1557  0.2199
    1DPPC   GL118171  12.628   3.127   3.057 -0.0526 -0.1954 -0.1710
    1DPPC   GL218172  12.798   3.359   3.182  0.1563 -0.0126 -0.1076
    1DPPC   C1A18173  12.770   3.006   3.584 -0.0267  0.3063 -0.0596
    1DPPC   C2A18174  12.876   3.276   3.858  0.0439  0.0493 -0.0331
    1DPPC   C3A18175  12.744   3.250   4.362  0.4176  0.5798  0.0014
    1DPPC   C4A18176  12.765   2.984   4.612 -0.0912  0.1162  0.0890
    1DPPC   C1B18177  12.545   3.427   3.476  0.0001  0.0671 -0.1337
    1DPPC   C2B18178  12.295   3.326   3.752 -0.0101 -0.0116  0.1416
    1DPPC   C3B18179  12.298   3.349   4.185 -0.1323 -0.1637  0.1161
    1DPPC   C4B18180  12.349   3.362   4.596 -0.0376 -0.1947 -0.2320
    1DPPC   NC318181  29.162  19.498   1.517  0.1956  0.0608  0.1073
    1DPPC   PO418182  28.835  19.280   1.707 -0.1346 -0.1899  0.2921
    1DPPC   GL118183  28.893  19.311   2.190 -0.1256  0.1116 -0.5709
    1DPPC   GL218184  29.036  19.039   2.327 -0.0560 -0.0167  0.0249
    1DPPC   C1A18185  29.249  19.382   2.572  0.1301  0.2634 -0.0862
    1DPPC   C2A18186  29.251  19.432   2.968  0.0507 -0.4108  0.2735
    1DPPC   C3A18187  29.184  19.504   3.413  0.1182  0.1973  0.0001
    1DPPC   C4A18188  28.914  19.547   3.780 -0.0967 -0.0754 -0.1353
    1DPPC   C1B18189  29.056  18.966   2.771  0.2558  0.1989  0.0378
    1DPPC   C2B18190  29.092  19.016   3.233  0.0808  0.0409  0.1374
    1DPPC   C3B18191  29.237  18.998   3.592 -0.1517 -0.0727 -0.3476
    1DPPC   C4B18192  29.471  18.876   3.946 -0.4393  0.0069  0.1580
    1DPPC   NC318193  27.142  19.069   1.273  0.0688 -0.1611  0.0354
    1DPPC   PO418194  27.482  18.857   1.476 -0.1195 -0.0986 -0.1506
    1DPPC   GL118195  27.468  19.062   1.902  0.3184 -0.0939 -0.0723
    1DPPC   GL218196  27.612  19.400   1.934 -0.1010 -0.1086 -0.2497
    1DPPC   C1A18197  27.385  18.842   2.214  0.2009 -0.4278  0.0640
    1DPPC   C2A18198  27.142  18.774   2.633  0.2124 -0.0404  0.2902
    1DPPC   C3A18199  27.111  18.747   3.054 -0.2660 -0.2686 -0.0957
    1DPPC   C4A18200  27.185  18.851   3.401  0.1292 -0.0773  0.1068
    1DPPC   C1B18201  27.590  19.527   2.260  0.2413  0.1351 -0.1003
    1DPPC   C2B18202  27.668  19.575   2.758  0.0699  0.1121 -0.0349
    1DPPC   C3B18203  27.493  19.535   3.169  0.0079  0.0463 -0.0181
    1DPPC   C4B18204  27.369  19.355   3.508  0.2373  0.0273 -0.1059
    1DPPC   NC318205  24.929  18.789   1.845  0.2262 -0.0126 -0.0885
    1DPPC   PO418206  24.983  18.329   1.870 -0.0483  0.4257  0.0789
    1DPPC   GL118207  25.010  18.277   2.248 -0.1298 -0.0467  0.1567
    1DPPC   GL218208  25.148  18.583   2.325  0.2235 -0.1411  0.4340
    1DPPC   C1A18209  24.894  18.034   2.588  0.2925  0.1552  0.0784
    1DPPC   C2A18210  24.582  17.828   2.857 -0.3226  0.0531 -0.0699
    1DPPC   C3A18211  24.150  17.841   2.830 -0.1314 -0.1441  0.2859
    1DPPC   C4A18212  23.724  17.892   2.625 -0.2134 -0.1340 -0.0294
    1DPPC   C1B18213  25.009  18.542   2.741  0.0984  0.0543 -0.0838
    1DPPC   C2B18214  24.885  18.302   3.103 -0.0194  0.0578  0.3305
    1DPPC   C3B18215  24.734  18.360   3.469 -0.0983 -0.1721  0.0223
    1DPPC   C4B18216  24.235  18.467   3.508  0.0708  0.3075  0.1313
    1DPPC   NC318217   2.408  16.813   1.948 -0.2044 -0.0469  0.0606
    1DPPC   PO418218   2.312  17.222   1.789 -0.0029 -0.1454 -0.0711
    1DPPC   GL118219   2.447  17.478   2.127 -0.0026  0.0231 -0.0622
    1DPPC   GL218220   2.530  17.145   2.288  0.1741  0.0453  0.2853
    1DPPC   C1A18221   2.405  17.652   2.572 -0.0084 -0.0539 -0.0090
    1DPPC   C2A18222   2.376  17.424   2.922  0.0240  0.1333  0.1649
    1DPPC   C3A18223   2.269  17.467   3.257  0.1230  0.1816 -0.0982
    1DPPC   C4A18224   2.377  17.386   3.580  0.0192  0.1534  0.0750
    1DPPC   C1B18225   2.767  17.321   2.595 -0.2300  0.0020 -0.0983
    1DPPC   C2B18226   2.896  17.387   2.939 -0.0036 -0.1264 -0.2663
    1DPPC   C3B18227   2.853  17.443   3.296  0.1552  0.0774 -0.0118
    1DPPC   C4B18228   2.799  17.427   3.795 -0.3453 -0.2534  0.1936
    1DPPC   NC318229   5.882  23.040   2.048 -0.0123  0.1641  0.1852
    1DPPC   PO418230   5.501  23.269   2.203 -0.1569  0.0093 -0.1135
    1DPPC   GL118231   5.889  23.339   2.535  0.4159  0.0043  0.0269
    1DPPC   GL218232   5.713  23.428   2.789 -0.0855 -0.1692  0.1225
    1DPPC   C1A18233   6.056  23.149   2.973  0.1028 -0.0641 -0.1002
    1DPPC   C2A18234   6.119  23.158   3.385 -0.2140 -0.0399 -0.0273
    1DPPC   C3A18235   6.024  23.001   3.769  0.1262  0.2575  0.2626
    1DPPC   C4A18236   5.806  22.756   3.958 -0.1589  0.2357 -0.0079
    1DPPC   C1B18237   5.517  23.147   3.156 -0.1036 -0.1205 -0.0202
    1DPPC   C2B18238   5.563  23.075   3.540  0.2481  0.3245  0.0013
    1DPPC   C3B18239   5.462  23.052   3.981 -0.1475 -0.2685 -0.1112
    1DPPC   C4B18240   5.416  22.855   4.368 -0.4301  0.1869 -0.0624
    1DPPC   NC318241   9.734  13.078   3.056 -0.1584 -0.0381 -0.1105
    1DPPC   PO418242  10.004  13.346   2.920 -0.0153  0.3004 -0.0236
    1DPPC   GL118243   9.927  13.448   3.392  0.2146 -0.0273 -0.1187
    1DPPC   GL218244   9.565  13.492   3.356 -0.4331  0.1466 -0.2602
    1DPPC   C1A18245   9.822  13.304   3.809 -0.0111 -0.1921  0.1277
    1DPPC   C2A18246   9.696  13.433   4.216  0.0333 -0.2154 -0.0452
    1DPPC   C3A18247   9.590  13.601   4.487  0.0924 -0.1122 -0.0234
    1DPPC   C4A18248   9.872  13.823   4.753 -0.3775  0.2068 -0.0099
    1DPPC   C1B18249   9.359  13.434   3.698  0.1355  0.1347 -0.0941
    1DPPC   C2B18250   9.197  13.497   4.118 -0.1347  0.1824  0.0899
    1DPPC   C3B18251   9.120  13.710   4.484  0.0975  0.0798 -0.1349
    1DPPC   C4B18252   8.959  13.927   4.765 -0.2954 -0.0269  0.2281
    1DPPC   NC318253  23.774  23.083   2.254 -0.0945 -0.0010  0.2361
    1DPPC   PO418254  23.785  22.686   2.396  0.2184 -0.0039  0.1778
    1DPPC   GL118255  23.639  22.427   2.734  0.0849 -0.0824 -0.1292
    1DPPC   GL218256  23.472  22.540   2.904  0.2570 -0.1841  0.1425
    1DPPC   C1A18257  23.780  22.118   3.076  0.0437 -0.0899  0.2221
    1DPPC   C2A18258  23.480  22.047   3.525 -0.4333 -0.1302 -0.0787
    1DPPC   C3A18259  23.555  21.750   3.865 -0.2313  0.1766 -0.1972
    1DPPC   C4A18260  23.457  21.453   4.042 -0.1868  0.1626 -0.3649
    1DPPC   C1B18261  23.729  22.539   3.321  0.0034 -0.1245 -0.0975
    1DPPC   C2B18262  23.951  22.460   3.696  0.4654 -0.0033  0.1824
    1DPPC   C3B18263  24.300  22.319   3.883  0.1290 -0.0711  0.0829
    1DPPC   C4B18264  24.636  22.086   3.723 -0.1083 -0.2908 -0.2377
    1DPPC   NC318265   7.243   7.294   2.729 -0.0077 -0.2363 -0.3319
    1DPPC   PO418266   7.038   7.202   3.062  0.2982  0.2301 -0.2471
    1DPPC   GL118267   7.091   7.255   3.452  0.0624 -0.0683 -0.2440
    1DPPC   GL218268   6.821   7.045   3.658  0.2525 -0.0614  0.1421
    1DPPC   C1A18269   7.172   7.300   3.926 -0.1024  0.3079 -0.2145
    1DPPC   C2A18270   7.028   7.423   4.382  0.1952 -0.2551 -0.3244
    1DPPC   C3A18271   6.973   7.801   4.665 -0.1069 -0.0328  0.0776
    1DPPC   C4A18272   6.793   8.243   4.765  0.2242 -0.2558 -0.1135
    1DPPC   C1B18273   6.803   6.979   4.131 -0.3128  0.0993 -0.1270
    1DPPC   C2B18274   6.801   6.879   4.455 -0.2700  0.1573  0.0677
    1DPPC   C3B18275   7.094   6.771   4.699  0.1061  0.1252 -0.0523
    1DPPC   C4B18276   7.298   6.959   5.066  0.0168 -0.1963  0.1878
    1DPPC   NC318277   1.756  12.100   2.429  0.3253  0.0545  0.0980
    1DPPC   PO418278   2.221  12.272   2.461 -0.2254 -0.2098  0.0046
    1DPPC   GL118279   2.405  12.362   2.785 -0.1501  0.2997 -0.0995
    1DPPC   GL218280   2.496  12.705   2.901  0.1077 -0.1218 -0.3044
    1DPPC   C1A18281   2.619  12.256   3.139  0.0498  0.1058 -0.3879
    1DPPC   C2A18282   2.643  12.321   3.538 -0.2448  0.1084  0.0907
    1DPPC   C3A18283   2.718  12.410   3.884 -0.0413 -0.4509 -0.0152
    1DPPC   C4A18284   2.712  12.396   4.286 -0.0764  0.2370 -0.3947
    1DPPC   C1B18285   2.483  13.029   3.129 -0.3091 -0.3050  0.2212
    1DPPC   C2B18286   2.635  13.190   3.505 -0.5299 -0.3361 -0.1925
    1DPPC   C3B18287   2.628  13.243   3.980 -0.1134 -0.1030  0.1851
    1DPPC   C4B18288   2.327  13.163   4.166 -0.1243  0.0116 -0.2283
    1DPPC   NC318289   7.964  15.962   2.070  0.2037 -0.0179 -0.1523
    1DPPC   PO418290   7.548  15.908   2.098 -0.0458  0.0014  0.3322
    1DPPC   GL118291   7.576  15.767   2.567 -0.1143 -0.1784 -0.0625
    1DPPC   GL218292   7.783  15.552   2.582 -0.2302  0.1000 -0.1571
    1DPPC   C1A18293   7.263  15.726   2.831 -0.1389 -0.1017  0.2380
    1DPPC   C2A18294   7.167  15.915   3.205  0.1254  0.0001 -0.3119
    1DPPC   C3A18295   7.107  15.981   3.538 -0.0012 -0.0646 -0.3363
    1DPPC   C4A18296   6.899  16.033   3.936 -0.1139 -0.1028  0.0377
    1DPPC   C1B18297   7.720  15.749   3.017 -0.1059  0.0763 -0.1626
    1DPPC   C2B18298   7.631  16.027   3.421  0.4331  0.1965 -0.1229
    1DPPC   C3B18299   7.776  16.251   3.764  0.1751  0.1725  0.2514
    1DPPC   C4B18300   8.196  16.436   3.999 -0.0943  0.0322 -0.0705
    1DPPC   NC318301   4.931  20.769   1.578  0.0617 -0.0614  0.1470
    1DPPC   PO418302   4.502  20.770   1.667  0.0970 -0.3100 -0.4370
    1DPPC   GL118303   4.265  20.733   2.018 -0.2737 -0.0295 -0.0880
    1DPPC   GL218304   4.388  20.945   2.239  0.0879  0.1216  0.0060
    1DPPC   C1A18305   4.065  20.585   2.459  0.1088  0.1375  0.1211
    1DPPC   C2A18306   4.063  20.602   2.871  0.1401 -0.1929  0.1490
    1DPPC   C3A18307   4.035  20.744   3.287  0.1102  0.0172  0.1440
    1DPPC   C4A18308   4.102  20.594   3.631 -0.0980  0.3037  0.0356
    1DPPC   C1B18309   4.523  20.887   2.700  0.0453 -0.2004  0.1004
    1DPPC   C2B18310   4.518  20.627   3.096  0.1110 -0.2749  0.0688
    1DPPC   C3B18311   4.740  20.646   3.437 -0.4091 -0.1413 -0.1079
    1DPPC   C4B18312   4.925  20.650   3.846 -0.0364 -0.0682 -0.1157
    1DPPC   NC318313   8.781  12.226   2.823  0.1314 -0.1046 -0.1218
    1DPPC   PO418314   8.922  11.823   2.637  0.0852  0.0363 -0.3857
    1DPPC   GL118315   8.961  11.701   3.141  0.2418  0.0226  0.0209
    1DPPC   GL218316   9.078  11.931   3.260  0.0191  0.4120 -0.2182
    1DPPC   C1A18317   8.673  11.568   3.580 -0.1152  0.0927  0.0051
    1DPPC   C2A18318   8.435  11.470   3.932  0.0412  0.0475 -0.0190
    1DPPC   C3A18319   8.236  11.507   4.350 -0.2062 -0.1464 -0.0426
    1DPPC   C4A18320   8.090  11.412   4.774 -0.1140  0.1471 -0.1384
    1DPPC   C1B18321   8.959  12.040   3.612  0.0004 -0.2268 -0.1154
    1DPPC   C2B18322   8.911  12.083   3.960  0.0720 -0.1364 -0.2353
    1DPPC   C3B18323   8.973  12.198   4.427  0.2219  0.1722 -0.0312
    1DPPC   C4B18324   8.770  12.212   4.796  0.0088 -0.1482  0.1693
    1DPPC   NC318325   6.179  13.720   2.267 -0.0514 -0.0187  0.0482
    1DPPC   PO418326   6.569  13.685   2.316  0.1474  0.3900 -0.3519
    1DPPC   GL118327   6.513  13.901   2.653  0.0298 -0.0134 -0.0444
    1DPPC   GL218328   6.757  14.080   2.626  0.0408  0.0231 -0.0213
    1DPPC   C1A18329   6.344  14.260   2.781 -0.0460  0.1079  0.1785
    1DPPC   C2A18330   6.311  14.307   3.142  0.4209 -0.0320  0.1813
    1DPPC   C3A18331   6.390  14.394   3.587 -0.0516 -0.3992  0.3338
    1DPPC   C4A18332   6.349  14.109   3.936  0.0744  0.2284 -0.3703
    1DPPC   C1B18333   6.688  13.949   3.139  0.2475 -0.1704  0.0788
    1DPPC   C2B18334   6.693  13.978   3.634  0.1542  0.3467 -0.0162
    1DPPC   C3B18335   6.759  13.857   3.995  0.0312 -0.2761 -0.4084
    1DPPC   C4B18336   6.654  14.085   4.353  0.2722 -0.0172 -0.1324
    1DPPC   NC318337   1.115  10.895   2.766 -0.0381  0.0291  0.0421
    1DPPC   PO418338   1.242  10.373   2.606  0.2140 -0.0210  0.0860
    1DPPC   GL118339   1.317  10.434   3.170  0.0636  0.0386  0.1829
    1DPPC   GL218340   1.486  10.100   3.110 -0.0349 -0.1543  0.3215
    1DPPC   C1A18341   1.396  10.461   3.608 -0.0775  0.0674  0.0476
    1DPPC   C2A18342   1.415  10.582   4.048 -0.1651 -0.2062 -0.1488
    1DPPC   C3A18343   1.393  10.773   4.490  0.0396 -0.0095 -0.2876
    1DPPC   C4A18344   1.318  11.098   4.703  0.2825 -0.2605 -0.0025
    1DPPC   C1B18345   1.165  10.005   3.425  0.1068  0.3103 -0.3907
    1DPPC   C2B18346   1.064   9.967   3.923 -0.1738  0.0587 -0.0907
    1DPPC   C3B18347   1.160   9.805   4.404 -0.0282 -0.0325 -0.1435
    1DPPC   C4B18348   1.241   9.934   4.776 -0.0290  0.0479  0.2186
    1DPPC   NC318349  26.476  20.586   1.752 -0.2121  0.0688 -0.0344
    1DPPC   PO418350  26.450  20.770   2.153  0.0940  0.0956  0.0815
    1DPPC   GL118351  26.236  20.878   2.540  0.2250  0.1804  0.0666
    1DPPC   GL218352  25.947  20.775   2.489  0.0052  0.0136 -0.0542
    1DPPC   C1A18353  26.093  20.874   3.008  0.4310  0.0334  0.2844
    1DPPC   C2A18354  25.943  20.912   3.386  0.0272 -0.1510  0.2510
    1DPPC   C3A18355  25.718  21.046   3.726 -0.1576 -0.2301  0.0838
    1DPPC   C4A18356  25.578  21.171   4.162 -0.0275 -0.0301  0.2172
    1DPPC   C1B18357  26.002  20.422   2.735  0.1972  0.2431 -0.0606
    1DPPC   C2B18358  25.839  20.169   3.080 -0.1807 -0.1306 -0.0150
    1DPPC   C3B18359  25.854  20.078   3.525  0.0156 -0.1117 -0.2564
    1DPPC   C4B18360  25.775  19.859   3.905 -0.0922 -0.2164  0.0787
    1DPPC   NC318361  24.830  27.417   3.106 -0.1342 -0.4506 -0.0758
    1DPPC   PO418362  25.051  27.301   3.479  0.0514  0.2721  0.3694
    1DPPC   GL118363  25.261  27.405   3.834  0.0557  0.1032  0.2811
    1DPPC   GL218364  25.438  27.688   3.883  0.0084 -0.1801  0.2617
    1DPPC   C1A18365  25.127  27.323   4.187 -0.1317  0.4038 -0.1925
    1DPPC   C2A18366  24.906  27.075   4.558  0.1328 -0.2121 -0.0640
    1DPPC   C3A18367  24.861  26.826   4.968  0.0994  0.2608 -0.0119
    1DPPC   C4A18368  24.904  26.858   5.422  0.1631 -0.0066 -0.0521
    1DPPC   C1B18369  25.387  27.719   4.289  0.0311 -0.2474 -0.1332
    1DPPC   C2B18370  25.037  27.620   4.586  0.2031 -0.0674 -0.0525
    1DPPC   C3B18371  24.753  27.821   4.903 -0.3023 -0.0843  0.1141
    1DPPC   C4B18372  24.491  27.648   5.200  0.2532 -0.2392 -0.0164
    1DPPC   NC318373   5.542  13.789   1.820 -0.3509 -0.3344  0.2061
    1DPPC   PO418374   5.295  13.529   2.174 -0.1204  0.0995 -0.1712
    1DPPC   GL118375   5.299  13.542   2.636 -0.1467  0.4006 -0.0503
    1DPPC   GL218376   5.212  13.168   2.701 -0.0378  0.0287 -0.1488
    1DPPC   C1A18377   5.304  13.438   3.069 -0.0050  0.0860 -0.2451
    1DPPC   C2A18378   5.391  13.535   3.562  0.1652  0.1723  0.0067
    1DPPC   C3A18379   5.493  13.551   3.947 -0.0655 -0.2524  0.0834
    1DPPC   C4A18380   5.775  13.444   4.244 -0.1570 -0.2176  0.1547
    1DPPC   C1B18381   5.002  13.002   3.008  0.1912  0.0443 -0.0628
    1DPPC   C2B18382   4.997  12.801   3.378  0.3339 -0.1529 -0.1292
    1DPPC   C3B18383   5.037  12.834   3.741  0.0224  0.2265 -0.0103
    1DPPC   C4B18384   5.000  12.801   4.179  0.0442 -0.2314  0.2328
    1DPPC   NC318385   8.304  11.078   2.847 -0.0084 -0.0730  0.1289
    1DPPC   PO418386   7.977  11.335   2.959  0.3560 -0.0483 -0.1193
    1DPPC   GL118387   7.931  11.641   3.286  0.0557 -0.1540 -0.0017
    1DPPC   GL218388   8.166  11.772   3.493  0.0351 -0.3898  0.0384
    1DPPC   C1A18389   7.662  11.707   3.607 -0.0876 -0.0092 -0.0112
    1DPPC   C2A18390   7.373  11.807   3.900 -0.1448 -0.2555  0.5124
    1DPPC   C3A18391   7.464  12.190   4.180  0.1254 -0.0314  0.0149
    1DPPC   C4A18392   7.744  12.447   4.306  0.0616 -0.0379 -0.1899
    1DPPC   C1B18393   8.393  11.942   3.892 -0.1456 -0.1894  0.2815
    1DPPC   C2B18394   8.574  11.868   4.289 -0.0068 -0.1853  0.1461
    1DPPC   C3B18395   8.720  11.674   4.705  0.1192 -0.4776  0.0489
    1DPPC   C4B18396   8.662  11.774   5.023  0.0722  0.2206 -0.2482
    1DPPC   NC318397  30.260  24.841   2.246  0.1552  0.1617  0.0880
    1DPPC   PO418398  30.074  25.179   2.544 -0.1394  0.0664  0.0799
    1DPPC   GL118399  30.074  25.004   2.986  0.3619  0.0023 -0.0927
    1DPPC   GL218400  30.195  24.790   3.114  0.1501  0.2816 -0.0769
    1DPPC   C1A18401  29.725  24.895   3.295  0.1747  0.1161  0.0551
    1DPPC   C2A18402  29.495  24.882   3.624  0.0425  0.5051  0.2524
    1DPPC   C3A18403  29.391  24.904   4.006  0.3286  0.0521 -0.1889
    1DPPC   C4A18404  29.549  24.627   4.352 -0.2552  0.0652  0.0300
    1DPPC   C1B18405   0.161  24.731   3.352  0.0905 -0.0754 -0.0896
    1DPPC   C2B18406   0.258  24.632   3.723 -0.3066 -0.0223  0.2925
    1DPPC   C3B18407   0.498  24.674   4.169 -0.1781  0.2435  0.1531
    1DPPC   C4B18408   0.954  24.761   4.333 -0.2510 -0.0384 -0.0564
    1DPPC   NC318409  30.265  12.218   2.209  0.2816  0.0437  0.0220
    1DPPC   PO418410  29.819  12.344   2.078  0.1514 -0.0683 -0.0961
    1DPPC   GL118411  29.953  12.635   2.385 -0.4669  0.1636 -0.0067
    1DPPC   GL218412  30.079  12.931   2.419 -0.3884  0.1568  0.1183
    1DPPC   C1A18413  29.891  12.738   2.799 -0.0723  0.0754 -0.0882
    1DPPC   C2A18414  29.863  12.821   3.197 -0.2926 -0.0662 -0.0332
    1DPPC   C3A18415  29.786  12.762   3.644  0.1863 -0.1049  0.2384
    1DPPC   C4A18416  29.604  12.879   4.050  0.2040 -0.1809 -0.1030
    1DPPC   C1B18417  29.961  13.198   2.746  0.1228 -0.1693  0.0243
    1DPPC   C2B18418  29.991  13.347   3.186 -0.0206 -0.2598  0.0908
    1DPPC   C3B18419  29.905  13.332   3.553 -0.0517 -0.0080 -0.1977
    1DPPC   C4B18420  29.828  13.451   3.977  0.1089 -0.0462  0.2119
    1DPPC   NC318421   7.019   9.600   2.320  0.0932  0.0887  0.1732
    1DPPC   PO418422   6.870   9.382   2.626 -0.1476 -0.2717 -0.2452
    1DPPC   GL118423   6.661   9.458   3.026 -0.1497  0.1647 -0.1500
    1DPPC   GL218424   6.641   9.836   3.105  0.1811  0.0648 -0.0568
    1DPPC   C1A18425   6.688   9.363   3.361  0.1118 -0.0951 -0.2575
    1DPPC   C2A18426   6.858   9.676   3.778  0.0975  0.3490  0.1791
    1DPPC   C3A18427   7.076   9.801   4.131  0.0439  0.3402  0.0372
    1DPPC   C4A18428   7.317   9.667   4.569 -0.0261  0.5428 -0.0681
    1DPPC   C1B18429   6.645  10.040   3.484  0.1061 -0.2332  0.2408
    1DPPC   C2B18430   6.654  10.080   3.929  0.0897  0.1104 -0.1033
    1DPPC   C3B18431   6.508   9.718   4.179  0.3354 -0.0479  0.1267
    1DPPC   C4B18432   6.247   9.407   4.349 -0.1776  0.0086  0.0623
    1DPPC   NC318433  27.932  18.776   1.741 -0.2075  0.0039 -0.0660
    1DPPC   PO418434  28.372  18.599   1.587 -0.0978 -0.1569 -0.1392
    1DPPC   GL118435  28.325  18.711   2.067 -0.0609 -0.0699  0.1437
    1DPPC   GL218436  28.546  19.061   2.111  0.0441  0.1234 -0.2349
    1DPPC   C1A18437  28.298  18.795   2.510 -0.1540 -0.0037 -0.0482
    1DPPC   C2A18438  28.264  18.722   2.933 -0.2608 -0.1714  0.2468
    1DPPC   C3A18439  28.337  18.671   3.381  0.2663  0.0637  0.2108
    1DPPC   C4A18440  28.434  18.616   3.796 -0.0738 -0.1637  0.1383
    1DPPC   C1B18441  28.637  19.143   2.587 -0.0811  0.3362 -0.1258
    1DPPC   C2B18442  28.622  19.040   2.982  0.0502 -0.0527 -0.2951
    1DPPC   C3B18443  28.609  19.076   3.409 -0.0259  0.1040  0.1421
    1DPPC   C4B18444  28.649  19.132   3.777  0.2389  0.0332 -0.0337
    1DPPC   NC318445   4.071  21.680   1.705  0.2129 -0.0327  0.0424
    1DPPC   PO418446   4.254  22.014   1.918 -0.0653  0.1121 -0.3118
    1DPPC   GL118447   4.398  21.789   2.207 -0.1448  0.1933 -0.1345
    1DPPC   GL218448   4.436  21.440   2.190  0.1669 -0.2450 -0.0015
    1DPPC   C1A18449   4.693  21.927   2.491  0.2002 -0.1176 -0.2097
    1DPPC   C2A18450   4.848  22.073   2.898 -0.0938 -0.3356  0.0177
    1DPPC   C3A18451   4.698  22.082   3.338  0.0681  0.0802 -0.4039
    1DPPC   C4A18452   4.850  22.102   3.691  0.0694  0.1003 -0.0815
    1DPPC   C1B18453   4.634  21.407   2.613  0.3403  0.0317  0.1662
    1DPPC   C2B18454   4.677  21.652   3.030 -0.0828  0.2775 -0.1776
    1DPPC   C3B18455   4.489  21.549   3.444 -0.3507 -0.3377 -0.2810
    1DPPC   C4B18456   4.616  21.617   3.821 -0.1157 -0.1120  0.0045
    1DPPC   NC318457  10.761  14.451   2.635 -0.0247  0.0016  0.0063
    1DPPC   PO418458  10.326  14.214   2.740 -0.0243 -0.2333 -0.1463
    1DPPC   GL118459  10.253  14.290   3.236 -0.1165  0.2123 -0.1583
    1DPPC   GL218460  10.319  14.038   3.373  0.3072 -0.2427  0.0162
    1DPPC   C1A18461  10.477  14.448   3.576  0.0671 -0.3097  0.1777
    1DPPC   C2A18462  10.462  14.452   3.950  0.0842  0.1760 -0.0899
    1DPPC   C3A18463  10.495  14.455   4.439  0.2275 -0.0141  0.1696
    1DPPC   C4A18464  10.712  14.391   4.776 -0.0946 -0.1785 -0.0539
    1DPPC   C1B18465  10.043  14.266   3.665 -0.1045  0.1457 -0.0434
    1DPPC   C2B18466   9.861  14.579   3.971 -0.3082 -0.2621  0.0297
    1DPPC   C3B18467   9.541  14.558   4.205  0.2793 -0.1996 -0.2713
    1DPPC   C4B18468   9.143  14.466   4.469  0.2784 -0.2514  0.0503
    1DPPC   NC318469   0.099  19.492   2.052 -0.0358  0.3318 -0.0848
    1DPPC   PO418470   0.166  19.918   2.033 -0.1269  0.0401  0.3331
    1DPPC   GL118471   0.184  20.230   2.386  0.4776 -0.0071  0.2004
    1DPPC   GL218472   0.421  20.166   2.520  0.1072  0.0550  0.1395
    1DPPC   C1A18473  30.284  20.345   2.732  0.4317 -0.1455 -0.3080
    1DPPC   C2A18474  30.188  20.409   3.151  0.1008  0.0038 -0.2216
    1DPPC   C3A18475  30.076  20.469   3.546  0.1815 -0.0808 -0.1130
    1DPPC   C4A18476  30.130  20.416   4.000 -0.1146 -0.2487  0.0677
    1DPPC   C1B18477   0.333  20.010   2.877  0.1713 -0.0212 -0.2023
    1DPPC   C2B18478   0.346  20.032   3.297 -0.1202  0.0439  0.2244
    1DPPC   C3B18479   0.414  19.883   3.593 -0.1339  0.0085 -0.0951
    1DPPC   C4B18480   0.622  19.906   4.041 -0.2496  0.1917  0.0759
    1DPPC   NC318481  29.343  29.114   3.682 -0.1075  0.0850  0.1155
    1DPPC   PO418482  29.101  28.739   3.580  0.0347 -0.1939 -0.1232
    1DPPC   GL118483  29.312  28.615   3.930 -0.0820  0.3850  0.2760
    1DPPC   GL218484  29.538  28.373   3.951 -0.1255  0.1543  0.2108
    1DPPC   C1A18485  29.286  28.579   4.329 -0.3135 -0.2206 -0.1758
    1DPPC   C2A18486  29.333  28.613   4.813 -0.2760 -0.0122  0.1456
    1DPPC   C3A18487  29.535  28.504   5.177 -0.0668  0.0765  0.1736
    1DPPC   C4A18488  29.981  28.447   5.211  0.0585 -0.2135  0.2747
    1DPPC   C1B18489  29.425  28.122   4.276  0.0181  0.3333 -0.0953
    1DPPC   C2B18490  29.432  27.772   4.569 -0.1069  0.1412 -0.0511
    1DPPC   C3B18491  29.265  27.550   4.848  0.0507 -0.0629 -0.0436
    1DPPC   C4B18492  29.359  27.246   5.119  0.0848 -0.0290 -0.2301
    1DPPC   NC318493  17.167  23.287   2.527 -0.2948 -0.1950  0.1500
    1DPPC   PO418494  16.833  23.437   2.478  0.2325 -0.0724 -0.2087
    1DPPC   GL118495  16.741  23.408   2.847  0.1843 -0.1732 -0.1342
    1DPPC   GL218496  16.836  23.695   3.101  0.2156  0.1255 -0.1005
    1DPPC   C1A18497  16.424  23.490   3.268  0.0423 -0.2126  0.2129
    1DPPC   C2A18498  16.563  23.576   3.712  0.3989 -0.2350  0.1432
    1DPPC   C3A18499  16.659  23.675   4.119  0.0447 -0.2401 -0.1630
    1DPPC   C4A18500  16.882  23.525   4.486  0.0933 -0.0581 -0.2327
    1DPPC   C1B18501  16.955  23.360   3.385  0.2071 -0.1481  0.1501
    1DPPC   C2B18502  16.996  22.994   3.634 -0.0572 -0.0788  0.3041
    1DPPC   C3B18503  16.867  22.935   4.090 -0.0941 -0.2104  0.0248
    1DPPC   C4B18504  17.034  22.872   4.468 -0.1341 -0.0815  0.2144
    1DPPC   NC318505   3.327  10.025   2.289  0.1175 -0.0994 -0.0770
    1DPPC   PO418506   3.140  10.179   2.660 -0.1216  0.0993 -0.0942
    1DPPC   GL118507   3.418  10.454   2.891 -0.0490 -0.0531  0.0361
    1DPPC   GL218508   3.416  10.236   3.137 -0.0025  0.0688 -0.1978
    1DPPC   C1A18509   3.605  10.794   3.268 -0.0322  0.1988  0.4999
    1DPPC   C2A18510   3.401  10.973   3.637 -0.1401  0.0850 -0.2895
    1DPPC   C3A18511   3.487  11.166   4.126  0.2103  0.1978 -0.1117
    1DPPC   C4A18512   3.404  11.271   4.495  0.0162  0.1049 -0.4238
    1DPPC   C1B18513   3.405   9.996   3.532  0.0660  0.0691 -0.1223
    1DPPC   C2B18514   3.516  10.071   3.895  0.1211 -0.1671  0.0022
    1DPPC   C3B18515   3.687   9.958   4.228 -0.0090 -0.2357 -0.0745
    1DPPC   C4B18516   3.921   9.986   4.610  0.2391 -0.0079 -0.0821
    1DPPC   NC318517  17.265   9.980   2.405 -0.2281 -0.2117  0.1976
    1DPPC   PO418518  17.671   9.781   2.653  0.1739 -0.2628  0.3890
    1DPPC   GL118519  17.780   9.824   3.158  0.2850 -0.0719 -0.1928
    1DPPC   GL218520  18.163   9.901   3.167 -0.1421  0.1602  0.0960
    1DPPC   C1A18521  17.949   9.950   3.688 -0.2206 -0.1433  0.0398
    1DPPC   C2A18522  18.105   9.942   4.085  0.1099 -0.1897  0.3075
    1DPPC   C3A18523  18.425   9.667   4.298  0.3483 -0.0468 -0.1480
    1DPPC   C4A18524  18.765   9.499   4.186 -0.3741 -0.1857  0.2409
    1DPPC   C1B18525  18.271   9.629   3.578 -0.1605  0.1165  0.3645
    1DPPC   C2B18526  17.976   9.387   4.013 -0.0383 -0.2103 -0.0809
    1DPPC   C3B18527  17.591   9.242   4.112  0.2249 -0.0867 -0.1798
    1DPPC   C4B18528  17.308   8.949   4.070  0.0166 -0.1533 -0.0489
    1DPPC   NC318529  28.824  13.781   1.534  0.0664  0.0443 -0.2072
    1DPPC   PO418530  29.029  13.738   1.875  0.2861 -0.2152 -0.3986
    1DPPC   GL118531  29.132  13.789   2.337 -0.0068 -0.0465  0.1071
    1DPPC   GL218532  29.041  14.128   2.262  0.2192 -0.1226 -0.1015
    1DPPC   C1A18533  29.152  13.651   2.861  0.2415  0.0323 -0.0352
    1DPPC   C2A18534  29.026  13.651   3.215 -0.0401 -0.1503  0.1709
    1DPPC   C3A18535  29.025  13.704   3.671 -0.0877 -0.0239  0.1530
    1DPPC   C4A18536  28.825  13.553   4.002  0.3524 -0.2533 -0.1585
    1DPPC   C1B18537  29.292  14.135   2.625 -0.2573 -0.0215 -0.2972
    1DPPC   C2B18538  29.246  14.093   3.035  0.0846  0.0075 -0.0814
    1DPPC   C3B18539  29.337  14.066   3.417  0.0700 -0.1275 -0.0236
    1DPPC   C4B18540  29.167  14.158   3.874  0.3277 -0.0707  0.3566
    1DPPC   NC318541  28.869  20.489   1.719 -0.1371 -0.0928  0.2291
    1DPPC   PO418542  28.757  20.103   1.882 -0.0840 -0.0647  0.0964
    1DPPC   GL118543  28.701  20.281   2.259  0.1743  0.1220 -0.1891
    1DPPC   GL218544  28.811  20.598   2.233 -0.4610 -0.1446 -0.1097
    1DPPC   C1A18545  28.561  20.203   2.711 -0.1516  0.0047 -0.0597
    1DPPC   C2A18546  28.291  20.109   3.026  0.3064  0.2242 -0.0494
    1DPPC   C3A18547  28.382  20.029   3.352 -0.3532 -0.2005 -0.2289
    1DPPC   C4A18548  28.116  19.907   3.500 -0.0874 -0.1075 -0.0385
    1DPPC   C1B18549  28.894  20.545   2.636  0.2068 -0.1386  0.0659
    1DPPC   C2B18550  29.004  20.785   2.962 -0.2240 -0.0040  0.0052
    1DPPC   C3B18551  29.049  20.743   3.464 -0.2102 -0.0172 -0.0196
    1DPPC   C4B18552  29.031  20.681   3.819 -0.4702  0.0790 -0.0283
    1DPPC   NC318553   2.174  14.499   1.811 -0.0037  0.0595 -0.0136
    1DPPC   PO418554   1.789  14.805   1.994  0.0701  0.3555 -0.1299
    1DPPC   GL118555   1.714  15.082   2.240 -0.2087  0.2066 -0.0280
    1DPPC   GL218556   1.448  15.267   2.309 -0.1014 -0.1412  0.0842
    1DPPC   C1A18557   1.785  15.006   2.639 -0.0911  0.2026  0.4788
    1DPPC   C2A18558   2.018  15.097   3.027 -0.2733 -0.1114  0.0067
    1DPPC   C3A18559   1.988  15.002   3.403  0.1254 -0.3561 -0.0371
    1DPPC   C4A18560   1.999  14.874   3.818  0.2726  0.2091  0.0039
    1DPPC   C1B18561   1.298  15.142   2.642  0.2271 -0.2311  0.1066
    1DPPC   C2B18562   1.113  15.123   3.065 -0.1088  0.1487 -0.0982
    1DPPC   C3B18563   0.881  15.247   3.487  0.0600 -0.2852  0.1690
    1DPPC   C4B18564   0.918  15.216   3.885  0.0691 -0.0589  0.4671
    1DPPC   NC318565   4.783  13.463   2.351  0.0276 -0.1084 -0.0957
    1DPPC   PO418566   4.442  13.666   2.246 -0.1961 -0.1561 -0.1218
    1DPPC   GL118567   4.470  13.730   2.693  0.3508 -0.2129  0.1310
    1DPPC   GL218568   4.495  13.995   2.880 -0.2508 -0.0151 -0.3008
    1DPPC   C1A18569   4.286  13.566   3.037  0.0348  0.2539 -0.0649
    1DPPC   C2A18570   4.205  13.359   3.418  0.0276 -0.4163 -0.1124
    1DPPC   C3A18571   4.196  13.333   3.825  0.0659  0.0840 -0.1825
    1DPPC   C4A18572   4.101  13.564   4.214 -0.2103 -0.2742 -0.1254
    1DPPC   C1B18573   4.516  13.894   3.342 -0.0482  0.0756 -0.0001
    1DPPC   C2B18574   4.478  13.733   3.717  0.0216  0.2687 -0.4022
    1DPPC   C3B18575   4.610  13.596   4.061  0.0700 -0.2341  0.1893
    1DPPC   C4B18576   4.514  13.385   4.470  0.1230  0.0203 -0.2025
    1DPPC   NC318577  21.061   2.220   3.202  0.0190 -0.1695  0.0090
    1DPPC   PO418578  20.695   2.389   2.988  0.3632  0.0221  0.1350
    1DPPC   GL118579  20.471   2.244   3.388 -0.2118  0.2716 -0.0429
    1DPPC   GL218580  20.520   1.967   3.447  0.0706  0.1102  0.2190
    1DPPC   C1A18581  20.484   2.273   3.888 -0.0044  0.1120 -0.0665
    1DPPC   C2A18582  20.224   2.407   4.254  0.1701 -0.0061  0.0026
    1DPPC   C3A18583  20.325   2.577   4.582  0.0344 -0.1298 -0.3085
    1DPPC   C4A18584  20.671   2.599   4.790  0.1822  0.2096 -0.1787
    1DPPC   C1B18585  20.745   1.875   3.790  0.0742  0.2409 -0.1716
    1DPPC   C2B18586  20.652   1.917   4.236  0.0764 -0.0814  0.0405
    1DPPC   C3B18587  20.570   2.106   4.659 -0.3245  0.0705 -0.2416
    1DPPC   C4B18588  20.909   2.214   4.971 -0.3536 -0.2393 -0.1419
    1DPPC   NC318589  12.815  25.586   2.770  0.0108 -0.2604  0.1263
    1DPPC   PO418590  13.138  25.384   2.967  0.3913 -0.5131  0.0428
    1DPPC   GL118591  13.141  24.968   3.028 -0.0955  0.0124 -0.0719
    1DPPC   GL218592  13.361  25.006   3.202  0.1891 -0.0056 -0.3234
    1DPPC   C1A18593  13.123  24.558   3.299  0.0406 -0.3814 -0.3959
    1DPPC   C2A18594  13.050  24.450   3.757 -0.1187  0.3057  0.2989
    1DPPC   C3A18595  13.265  24.649   4.122  0.4117 -0.0163  0.1604
    1DPPC   C4A18596  13.577  25.000   4.004  0.1767 -0.1104  0.1362
    1DPPC   C1B18597  13.218  24.966   3.638  0.0141  0.2041  0.0580
    1DPPC   C2B18598  12.813  24.805   3.848  0.2965 -0.2995 -0.2546
    1DPPC   C3B18599  12.432  24.752   3.991  0.0642  0.1625 -0.1256
    1DPPC   C4B18600  12.320  24.820   4.477  0.2336 -0.0657 -0.1432
    1DPPC   NC318601   1.794  22.686   2.470 -0.0842 -0.0050 -0.2632
    1DPPC   PO418602   2.226  22.618   2.620  0.4757 -0.0464  0.0859
    1DPPC   GL118603   2.137  22.496   3.038 -0.1226 -0.2214  0.0804
    1DPPC   GL218604   1.919  22.196   2.978 -0.0725 -0.0624 -0.3016
    1DPPC   C1A18605   2.255  22.462   3.459 -0.0143  0.1537 -0.1652
    1DPPC   C2A18606   2.406  22.394   3.773  0.0439 -0.1669 -0.0318
    1DPPC   C3A18607   2.373  22.401   4.218  0.1634 -0.0465  0.2462
    1DPPC   C4A18608   2.253  22.188   4.554  0.2635  0.3846 -0.0564
    1DPPC   C1B18609   1.892  22.149   3.491 -0.1195 -0.1697  0.1777
    1DPPC   C2B18610   1.605  22.100   3.846  0.0756  0.0707 -0.0309
    1DPPC   C3B18611   1.453  22.128   4.251  0.0922 -0.1190  0.3806
    1DPPC   C4B18612   1.498  21.883   4.581 -0.0745 -0.0754  0.1953
    1DPPC   NC318613  30.245  21.481   1.740 -0.2122  0.0273 -0.0418
    1DPPC   PO418614   0.374  21.384   1.739  0.1529 -0.0216  0.1048
    1DPPC   GL118615   0.536  21.366   2.238  0.3359  0.0263 -0.2482
    1DPPC   GL218616   0.544  21.685   2.430  0.1362  0.0098  0.0158
    1DPPC   C1A18617   0.318  21.309   2.670  0.0860  0.0574  0.0567
    1DPPC   C2A18618   0.148  21.134   3.092 -0.2454  0.0655  0.2162
    1DPPC   C3A18619   0.232  21.081   3.483  0.4113  0.1905 -0.0285
    1DPPC   C4A18620   0.399  20.941   3.829  0.1017  0.0954 -0.1143
    1DPPC   C1B18621   0.621  21.725   2.776 -0.3963  0.0509  0.0759
    1DPPC   C2B18622   0.776  21.643   3.181  0.0252 -0.2098 -0.0590
    1DPPC   C3B18623   0.788  21.782   3.514 -0.0911  0.0395 -0.0933
    1DPPC   C4B18624   0.835  21.836   3.919 -0.2068  0.1285 -0.0823
    1DPPC   NC318625   3.432  27.219   3.348 -0.3397  0.1044  0.0177
    1DPPC   PO418626   2.977  27.160   3.276  0.3973 -0.0208  0.0424
    1DPPC   GL118627   2.960  27.121   3.702  0.2269 -0.2144  0.1462
    1DPPC   GL218628   3.285  27.260   3.860  0.2557 -0.0211 -0.1166
    1DPPC   C1A18629   2.890  26.759   3.983 -0.2315 -0.1128 -0.2007
    1DPPC   C2A18630   2.736  26.885   4.381 -0.0562  0.0350  0.1220
    1DPPC   C3A18631   2.656  27.081   4.759  0.1615  0.2919  0.1551
    1DPPC   C4A18632   2.754  27.052   5.218  0.0490  0.0766  0.0362
    1DPPC   C1B18633   3.485  26.936   4.162  0.0060  0.0876 -0.0704
    1DPPC   C2B18634   3.514  26.705   4.491 -0.1854  0.1111  0.0791
    1DPPC   C3B18635   3.678  26.695   4.887  0.4114  0.0690  0.2207
    1DPPC   C4B18636   3.838  26.600   5.351  0.2613  0.0155 -0.1142
    1DPPC   NC318637   5.394  15.836   1.689  0.0177  0.1258 -0.2848
    1DPPC   PO418638   5.222  15.748   2.036 -0.1102 -0.0078 -0.2980
    1DPPC   GL118639   5.327  15.836   2.398  0.1277 -0.1055  0.0900
    1DPPC   GL218640   5.310  16.126   2.438  0.0845  0.0522 -0.2334
    1DPPC   C1A18641   5.404  15.593   2.747  0.0144  0.0224 -0.2840
    1DPPC   C2A18642   5.350  15.648   3.195 -0.0579 -0.0958 -0.0307
    1DPPC   C3A18643   5.208  15.744   3.633 -0.0097 -0.2200 -0.0949
    1DPPC   C4A18644   4.986  15.899   3.921 -0.0393  0.1746 -0.2012
    1DPPC   C1B18645   5.503  16.139   2.943 -0.1484  0.2602  0.3433
    1DPPC   C2B18646   5.458  16.363   3.338 -0.0474 -0.0691  0.0924
    1DPPC   C3B18647   5.240  16.308   3.753  0.2262  0.0014  0.0666
    1DPPC   C4B18648   5.070  16.349   4.227 -0.1521 -0.3428  0.0459
    1DPPC   NC318649   2.196  10.865   2.398  0.4103  0.0670 -0.0352
    1DPPC   PO418650   2.343  11.213   2.277  0.3032 -0.2864  0.0977
    1DPPC   GL118651   2.130  11.231   2.697  0.2000 -0.0351  0.3079
    1DPPC   GL218652   2.419  11.328   2.762 -0.0520 -0.2536  0.3303
    1DPPC   C1A18653   2.077  11.193   3.106  0.0883  0.0555 -0.2999
    1DPPC   C2A18654   2.028  11.183   3.546 -0.3377 -0.1470 -0.0283
    1DPPC   C3A18655   2.025  11.291   3.977 -0.0144  0.0376  0.0923
    1DPPC   C4A18656   2.214  10.938   4.090 -0.0391 -0.1028 -0.0476
    1DPPC   C1B18657   2.546  11.253   3.197 -0.1800 -0.0394  0.0204
    1DPPC   C2B18658   2.509  11.256   3.675 -0.1576 -0.0311  0.2471
    1DPPC   C3B18659   2.667  11.321   4.048  0.0249  0.0592 -0.0817
    1DPPC   C4B18660   2.900  11.204   4.381 -0.1371 -0.0903 -0.1929
    1DPPC   NC318661   2.885  22.948   2.491  0.1229 -0.0379  0.1624
    1DPPC   PO418662   3.238  22.724   2.438  0.1348  0.0202 -0.1333
    1DPPC   GL118663   3.078  22.554   2.787 -0.0080  0.0995  0.1494
    1DPPC   GL218664   2.703  22.597   2.784 -0.0208 -0.3827  0.2421
    1DPPC   C1A18665   3.037  22.406   3.189 -0.0951 -0.1575 -0.1694
    1DPPC   C2A18666   3.148  22.119   3.485 -0.1424 -0.0653 -0.1390
    1DPPC   C3A18667   3.302  21.791   3.829  0.3349 -0.2412 -0.2324
    1DPPC   C4A18668   3.203  21.363   3.995 -0.1990 -0.1036  0.0897
    1DPPC   C1B18669   2.614  22.711   3.179  0.0973 -0.2332 -0.2808
    1DPPC   C2B18670   2.762  22.668   3.482  0.0102  0.0921 -0.1830
    1DPPC   C3B18671   2.885  22.448   3.781 -0.1505  0.0979 -0.1959
    1DPPC   C4B18672   2.830  22.078   3.898 -0.2050 -0.0495  0.0754
    1DPPC   NC318673   8.303  14.920   2.375 -0.0433 -0.3513 -0.0042
    1DPPC   PO418674   8.142  14.554   2.509  0.0036 -0.1289 -0.0828
    1DPPC   GL118675   7.869  14.787   2.734  0.0192  0.2702  0.0150
    1DPPC   GL218676   7.947  15.082   2.752  0.0320 -0.1313  0.2416
    1DPPC   C1A18677   7.647  14.778   3.125  0.0099  0.1458  0.1368
    1DPPC   C2A18678   7.559  14.946   3.431 -0.1825 -0.0007  0.2457
    1DPPC   C3A18679   7.588  15.170   3.827 -0.0669  0.0496  0.3255
    1DPPC   C4A18680   7.398  15.181   4.204 -0.0625  0.1830 -0.1355
    1DPPC   C1B18681   7.836  15.264   3.137  0.3260 -0.0378 -0.2095
    1DPPC   C2B18682   7.660  15.489   3.443  0.3299 -0.2789 -0.2104
    1DPPC   C3B18683   7.512  15.718   3.803 -0.3076 -0.1800  0.0321
    1DPPC   C4B18684   7.404  16.014   3.986 -0.0226 -0.2705 -0.0629
    1DPPC   NC318685  11.539  13.642   3.051 -0.2056 -0.2444  0.0378
    1DPPC   PO418686  11.087  13.865   3.096 -0.0410 -0.2403  0.2321
    1DPPC   GL118687  10.857  13.943   3.501 -0.0559  0.2979 -0.1689
    1DPPC   GL218688  10.917  14.275   3.674  0.0226 -0.5358 -0.2184
    1DPPC   C1A18689  10.673  13.902   4.008  0.0612 -0.2269  0.2820
    1DPPC   C2A18690  10.545  13.833   4.426  0.1434  0.2145 -0.2679
    1DPPC   C3A18691  10.332  13.998   4.752 -0.0049 -0.0641  0.3867
    1DPPC   C4A18692  10.138  14.266   5.030 -0.0818 -0.1401 -0.0202
    1DPPC   C1B18693  10.940  14.312   4.098  0.0925 -0.2255 -0.0948
    1DPPC   C2B18694  11.080  14.482   4.386 -0.1228 -0.1661  0.0434
    1DPPC   C3B18695  11.233  14.338   4.821 -0.1210  0.5711  0.4066
    1DPPC   C4B18696  11.263  14.197   5.296  0.2634 -0.4203  0.0956
    1DPPC   NC318697  27.841  13.146   1.695  0.0555 -0.0227 -0.0957
    1DPPC   PO418698  27.777  12.766   1.968  0.0620 -0.1051  0.1089
    1DPPC   GL118699  27.621  12.803   2.429 -0.2036  0.2045 -0.2869
    1DPPC   GL218700  27.501  13.149   2.566  0.0750 -0.0676 -0.2292
    1DPPC   C1A18701  27.789  12.884   2.863 -0.1351 -0.2908 -0.2774
    1DPPC   C2A18702  27.923  12.884   3.271  0.0081 -0.0279 -0.0576
    1DPPC   C3A18703  27.785  13.001   3.644 -0.0618  0.0353  0.1576
    1DPPC   C4A18704  27.918  13.039   4.032 -0.2296  0.2689 -0.2592
    1DPPC   C1B18705  27.314  13.091   2.953  0.1448 -0.1179 -0.0197
    1DPPC   C2B18706  27.390  13.276   3.310 -0.2073  0.2917  0.0428
    1DPPC   C3B18707  27.405  13.397   3.751 -0.2165 -0.2063  0.0174
    1DPPC   C4B18708  27.493  13.379   4.162 -0.1508  0.2029  0.0064
    1DPPC   NC318709  29.045  19.754   2.013  0.2200 -0.2447  0.2345
    1DPPC   PO418710  29.494  19.813   1.992 -0.2204  0.3052  0.0876
    1DPPC   GL118711  29.501  19.907   2.361  0.1663 -0.2775  0.1034
    1DPPC   GL218712  29.110  20.033   2.388  0.2087 -0.0950 -0.0115
    1DPPC   C1A18713  29.459  19.850   2.753  0.0075 -0.0305 -0.2005
    1DPPC   C2A18714  29.406  19.908   3.180 -0.0011  0.1455 -0.0098
    1DPPC   C3A18715  29.421  19.805   3.717  0.0378 -0.1062  0.0669
    1DPPC   C4A18716  29.342  19.440   3.878  0.0484  0.0684 -0.1301
    1DPPC   C1B18717  29.010  20.040   2.784  0.2492  0.1709  0.0156
    1DPPC   C2B18718  28.841  20.102   3.173  0.1910  0.4839  0.3165
    1DPPC   C3B18719  28.830  19.903   3.497  0.0038  0.1349  0.0908
    1DPPC   C4B18720  28.591  19.969   3.885 -0.0984 -0.1162  0.2439
    1DPPC   NC318721   0.910  22.497   2.037 -0.0234 -0.2432  0.0049
    1DPPC   PO418722   0.835  23.080   2.171  0.0629  0.1056 -0.0569
    1DPPC   GL118723   0.753  23.046   2.670 -0.0821  0.3211  0.1870
    1DPPC   GL218724   0.473  23.119   2.707 -0.0476  0.1936  0.1989
    1DPPC   C1A18725   0.764  23.025   3.078 -0.1234  0.3050 -0.0766
    1DPPC   C2A18726   0.694  23.148   3.540  0.2348 -0.0748  0.2185
    1DPPC   C3A18727   0.683  23.240   3.960 -0.1926 -0.1503 -0.2123
    1DPPC   C4A18728   0.585  23.309   4.415  0.0319 -0.1163  0.4299
    1DPPC   C1B18729   0.172  23.180   3.134 -0.0765 -0.0115  0.1263
    1DPPC   C2B18730   0.215  23.254   3.604 -0.1236  0.1254  0.0074
    1DPPC   C3B18731   0.206  23.128   4.044  0.1000  0.0586 -0.0924
    1DPPC   C4B18732   0.200  22.805   4.279  0.0836  0.0732 -0.0941
    1DPPC   NC318733  28.920  18.025   1.749  0.2053 -0.3545 -0.0970
    1DPPC   PO418734  28.598  17.692   1.894  0.4369 -0.0569 -0.2054
    1DPPC   GL118735  28.535  17.599   2.409 -0.1454 -0.2243  0.1454
    1DPPC   GL218736  28.218  17.740   2.358 -0.1476  0.1517 -0.0365
    1DPPC   C1A18737  28.564  17.536   2.889 -0.0427 -0.0292  0.1564
    1DPPC   C2A18738  28.545  17.664   3.318 -0.0644  0.1199 -0.4116
    1DPPC   C3A18739  28.570  17.582   3.741  0.0468 -0.1649  0.4426
    1DPPC   C4A18740  28.913  17.738   4.099  0.3513 -0.2195  0.0299
    1DPPC   C1B18741  28.142  17.792   2.719 -0.1203 -0.0665 -0.4696
    1DPPC   C2B18742  28.056  17.719   3.128 -0.2040  0.1549 -0.1045
    1DPPC   C3B18743  28.082  17.648   3.546  0.1950 -0.1438 -0.1163
    1DPPC   C4B18744  28.195  17.771   4.005 -0.0477 -0.3193  0.0509
    1DPPC   NC318745  26.948  23.480   2.513  0.2368  0.1518 -0.2918
    1DPPC   PO418746  26.681  23.846   2.745  0.2057 -0.0327 -0.2176
    1DPPC   GL118747  26.804  23.897   3.196 -0.0688 -0.0139  0.0073
    1DPPC   GL218748  27.156  23.881   3.370 -0.0131 -0.1376 -0.0764
    1DPPC   C1A18749  26.755  23.709   3.560  0.0328 -0.2383 -0.1564
    1DPPC   C2A18750  26.868  23.653   3.960 -0.0037 -0.0731 -0.2567
    1DPPC   C3A18751  26.978  23.987   4.140 -0.1752 -0.2042 -0.1152
    1DPPC   C4A18752  27.288  24.114   4.172 -0.0458  0.2744 -0.1009
    1DPPC   C1B18753  27.298  23.872   3.740  0.1100 -0.0716  0.0527
    1DPPC   C2B18754  27.625  23.732   3.996  0.0698  0.1742 -0.2704
    1DPPC   C3B18755  27.729  23.685   4.351 -0.0849 -0.2591  0.1995
    1DPPC   C4B18756  27.701  23.594   4.810  0.0457 -0.1663  0.2957
    1DPPC   NC318757  10.048  11.229   3.175 -0.0691  0.1217  0.4704
    1DPPC   PO418758   9.887  11.587   3.017  0.1397  0.3604 -0.0207
    1DPPC   GL118759  10.039  11.666   3.529 -0.0563  0.1279 -0.1027
    1DPPC   GL218760  10.123  12.036   3.595 -0.1208  0.2301  0.0359
    1DPPC   C1A18761  10.004  11.530   3.918 -0.0117  0.2661  0.1148
    1DPPC   C2A18762   9.771  11.502   4.396  0.2072  0.3137 -0.1640
    1DPPC   C3A18763   9.697  11.739   4.754 -0.0639 -0.1036 -0.0519
    1DPPC   C4A18764   9.714  12.182   4.906 -0.0527  0.1387  0.1089
    1DPPC   C1B18765   9.966  12.234   3.990 -0.1510 -0.2404 -0.0192
    1DPPC   C2B18766   9.888  12.498   4.455 -0.1023  0.2928  0.1824
    1DPPC   C3B18767   9.720  12.695   4.771  0.0135  0.3873 -0.2102
    1DPPC   C4B18768   9.262  12.788   4.835 -0.2714 -0.2948  0.1681
    1DPPC   NC318769  29.574  14.938   1.998  0.0740 -0.0256 -0.3038
    1DPPC   PO418770  29.408  15.301   2.228 -0.1010 -0.2512 -0.1105
    1DPPC   GL118771  29.524  15.452   2.529  0.0977 -0.0630  0.0822
    1DPPC   GL218772  29.764  15.598   2.515  0.1603 -0.0761 -0.1154
    1DPPC   C1A18773  29.588  15.381   2.972 -0.1305  0.2590  0.1508
    1DPPC   C2A18774  29.653  15.396   3.346  0.1344 -0.1265  0.1776
    1DPPC   C3A18775  29.741  15.477   3.792  0.0336 -0.0111  0.1325
    1DPPC   C4A18776  29.934  15.568   4.222 -0.2833 -0.2011  0.3301
    1DPPC   C1B18777  29.974  15.718   2.925 -0.1951 -0.4413  0.1140
    1DPPC   C2B18778  30.091  15.921   3.328  0.3510 -0.2494 -0.2130
    1DPPC   C3B18779  30.178  15.920   3.778  0.2384  0.0171  0.1307
    1DPPC   C4B18780   0.115  15.685   4.099 -0.3714  0.0410  0.3677
    1DPPC   NC318781  27.657  22.249   2.302  0.2335  0.0085 -0.3821
    1DPPC   PO418782  27.177  22.250   2.158  0.1311 -0.1739 -0.2420
    1DPPC   GL118783  27.267  22.014   2.504 -0.1492  0.0520  0.2236
    1DPPC   GL218784  27.244  22.202   2.627 -0.1067  0.0617 -0.0483
    1DPPC   C1A18785  27.480  21.828   2.950  0.0158 -0.0308 -0.0216
    1DPPC   C2A18786  27.545  21.893   3.403  0.1308  0.1265  0.3169
    1DPPC   C3A18787  27.543  21.889   3.775  0.0127  0.1509  0.0798
    1DPPC   C4A18788  27.658  21.572   4.066 -0.3897 -0.2359  0.0246
    1DPPC   C1B18789  26.969  21.983   2.885  0.0832  0.2210  0.0925
    1DPPC   C2B18790  26.963  21.854   3.342 -0.1408  0.0460 -0.4711
    1DPPC   C3B18791  26.927  21.646   3.656  0.3940 -0.0825  0.0295
    1DPPC   C4B18792  26.589  21.540   3.967  0.3017  0.0384  0.0661
    1DPPC   NC318793   3.105  18.467   1.420 -0.1463 -0.2666  0.1485
    1DPPC   PO418794   2.908  18.268   1.804 -0.0888 -0.1312  0.2287
    1DPPC   GL118795   2.988  18.443   2.154 -0.1289  0.0851 -0.1254
    1DPPC   GL218796   3.319  18.338   2.218  0.0582 -0.1386  0.0755
    1DPPC   C1A18797   2.782  18.459   2.547 -0.0829 -0.1334 -0.0632
    1DPPC   C2A18798   2.919  18.458   2.952 -0.1870 -0.0267 -0.2280
    1DPPC   C3A18799   2.944  18.543   3.318  0.1728 -0.2160 -0.0773
    1DPPC   C4A18800   2.844  18.683   3.808 -0.2479  0.0419 -0.1167
    1DPPC   C1B18801   3.524  18.293   2.680  0.0829 -0.0845 -0.0702
    1DPPC   C2B18802   3.407  18.385   3.057  0.0200 -0.3280 -0.4017
    1DPPC   C3B18803   3.506  18.542   3.532 -0.0976 -0.3223 -0.1584
    1DPPC   C4B18804   3.352  18.580   3.966 -0.0674  0.0750 -0.1308
    1DPPC   NC318805   2.127  19.089   1.399 -0.0612 -0.0563 -0.1970
    1DPPC   PO418806   2.199  18.834   1.735  0.0481 -0.1225 -0.0160
    1DPPC   GL118807   2.304  18.703   2.128 -0.2310 -0.0128  0.1341
    1DPPC   GL218808   2.535  18.474   2.118  0.1233 -0.0803  0.2154
    1DPPC   C1A18809   2.325  18.594   2.550 -0.0340 -0.0962  0.2375
    1DPPC   C2A18810   2.491  18.503   3.167  0.1522  0.1471  0.5473
    1DPPC   C3A18811   2.504  18.271   3.488  0.0608  0.1253  0.0981
    1DPPC   C4A18812   2.550  18.242   3.865 -0.1510  0.0044 -0.0510
    1DPPC   C1B18813   2.436  18.131   2.403 -0.0662 -0.0681 -0.2266
    1DPPC   C2B18814   2.453  18.121   2.871 -0.1746  0.3194  0.2301
    1DPPC   C3B18815   2.579  17.899   3.187  0.0452 -0.0425  0.0698
    1DPPC   C4B18816   2.728  17.889   3.629 -0.2665  0.1145 -0.0028
    1DPPC   NC318817   2.787  13.979   1.694 -0.0662  0.0828 -0.0421
    1DPPC   PO418818   3.194  13.962   1.963 -0.1786 -0.2699  0.0919
    1DPPC   GL118819   3.020  14.022   2.427  0.2840 -0.1069 -0.0188
    1DPPC   GL218820   3.184  13.684   2.521 -0.1632 -0.0689 -0.0710
    1DPPC   C1A18821   2.949  13.975   2.934 -0.2426 -0.0814 -0.0545
    1DPPC   C2A18822   3.031  14.012   3.365 -0.1831 -0.0451  0.1013
    1DPPC   C3A18823   3.215  13.937   3.728  0.2406  0.1179 -0.1812
    1DPPC   C4A18824   3.274  14.027   4.082 -0.3693 -0.0728  0.0462
    1DPPC   C1B18825   3.368  13.676   2.954  0.1355 -0.1181 -0.0531
    1DPPC   C2B18826   3.442  13.691   3.386  0.0944  0.0413  0.1349
    1DPPC   C3B18827   3.970  13.831   3.482 -0.0679  0.1570 -0.0144
    1DPPC   C4B18828   4.209  14.285   3.471 -0.2767 -0.0560 -0.1367
    1DPPC   NC318829   4.070  28.417   3.516 -0.0780 -0.1734 -0.1116
    1DPPC   PO418830   3.844  28.040   3.358 -0.0928  0.1783 -0.1868
    1DPPC   GL118831   3.534  27.864   3.731  0.3924  0.0240 -0.1474
    1DPPC   GL218832   3.629  27.551   3.667  0.0421  0.0526 -0.1318
    1DPPC   C1A18833   3.179  27.669   4.108  0.3841 -0.2295 -0.1831
    1DPPC   C2A18834   2.980  27.321   4.228  0.2995 -0.1002 -0.2418
    1DPPC   C3A18835   3.158  27.022   4.580 -0.0882 -0.1578 -0.1701
    1DPPC   C4A18836   3.188  26.796   4.957  0.2593 -0.0578  0.0868
    1DPPC   C1B18837   3.718  27.498   4.058  0.0903 -0.0988 -0.0044
    1DPPC   C2B18838   3.883  27.691   4.507  0.0961  0.0390  0.0717
    1DPPC   C3B18839   3.675  27.617   4.936 -0.2078 -0.2562  0.2692
    1DPPC   C4B18840   3.679  27.471   5.402 -0.0112 -0.0840 -0.0252
    1DPPC   NC318841   1.384  19.799   1.543  0.0568 -0.3927 -0.0420
    1DPPC   PO418842   1.058  19.675   1.765  0.0314  0.2335  0.1611
    1DPPC   GL118843   0.901  19.598   2.144 -0.1433  0.1994 -0.1602
    1DPPC   GL218844   0.540  19.704   2.258  0.2138  0.1099  0.0101
    1DPPC   C1A18845   0.800  19.286   2.529  0.3102  0.2319  0.0183
    1DPPC   C2A18846   0.768  19.183   2.934 -0.1299  0.1943 -0.0806
    1DPPC   C3A18847   0.870  19.147   3.380  0.0840  0.0525  0.2355
    1DPPC   C4A18848   1.152  19.155   3.843  0.1498 -0.0164 -0.0972
    1DPPC   C1B18849   0.362  19.545   2.672  0.0648 -0.1580 -0.4251
    1DPPC   C2B18850   0.369  19.463   3.041  0.1635  0.0453 -0.3982
    1DPPC   C3B18851   0.337  19.405   3.417  0.0262  0.0229 -0.1598
    1DPPC   C4B18852   0.456  19.170   3.754  0.0005 -0.1181 -0.1118
    1DPPC   NC318853  25.008  16.639   1.851  0.3384  0.1463 -0.0568
    1DPPC   PO418854  24.704  16.875   1.786  0.0633  0.0700  0.0496
    1DPPC   GL118855  24.881  16.872   2.333  0.1585 -0.0327 -0.0356
    1DPPC   GL218856  24.901  16.564   2.437  0.0481  0.1722 -0.0357
    1DPPC   C1A18857  24.696  16.800   2.801  0.0780  0.1724 -0.0703
    1DPPC   C2A18858  24.769  16.744   3.252 -0.0515 -0.0312  0.3218
    1DPPC   C3A18859  24.744  16.608   3.667  0.0292  0.0766  0.0876
    1DPPC   C4A18860  24.820  16.610   4.111 -0.1510 -0.1947 -0.0451
    1DPPC   C1B18861  25.123  16.432   2.843 -0.1438 -0.0331  0.1757
    1DPPC   C2B18862  25.132  16.433   3.319  0.1091 -0.0761  0.0625
    1DPPC   C3B18863  25.236  16.649   3.684  0.2117  0.0493 -0.1460
    1DPPC   C4B18864  25.546  16.646   3.862 -0.1943  0.1701 -0.2081
    1DPPC   NC318865   0.462  13.640   1.311  0.1163  0.2034  0.1060
    1DPPC   PO418866   0.464  13.629   1.707 -0.2294  0.1351 -0.0418
    1DPPC   GL118867   0.409  13.523   2.146  0.5256  0.1039  0.1993
    1DPPC   GL218868   0.446  13.822   2.375  0.0519 -0.1600 -0.0970
    1DPPC   C1A18869   0.698  13.421   2.495 -0.0093 -0.0475 -0.1276
    1DPPC   C2A18870   0.740  13.416   2.886  0.1413  0.1508 -0.4258
    1DPPC   C3A18871   0.835  13.341   3.351 -0.0369 -0.0489  0.0775
    1DPPC   C4A18872   0.813  13.236   3.787 -0.0692 -0.2976 -0.2935
    1DPPC   C1B18873   0.745  13.914   2.710 -0.0330  0.0607  0.2681
    1DPPC   C2B18874   0.678  13.888   3.225 -0.0250 -0.1098 -0.0036
    1DPPC   C3B18875   0.653  13.815   3.682 -0.3612  0.0667 -0.0120
    1DPPC   C4B18876   0.807  13.882   4.100  0.0454  0.1671  0.1716
    1DPPC   NC318877  10.031  13.809   3.004 -0.1990 -0.2770 -0.0042
    1DPPC   PO418878   9.780  14.081   2.765  0.1560 -0.2052 -0.1750
    1DPPC   GL118879   9.490  14.398   2.993  0.1338 -0.0251 -0.0541
    1DPPC   GL218880   9.437  14.623   2.954 -0.1279 -0.4109 -0.0349
    1DPPC   C1A18881   9.212  14.438   3.326  0.0923 -0.0241  0.0794
    1DPPC   C2A18882   8.995  14.516   3.550  0.1297  0.0189 -0.3401
    1DPPC   C3A18883   8.987  14.566   4.005  0.1304  0.0828  0.1483
    1DPPC   C4A18884   8.676  14.664   4.327  0.0934  0.2709 -0.1057
    1DPPC   C1B18885   9.366  14.907   3.324  0.1368 -0.0193 -0.2655
    1DPPC   C2B18886   9.378  14.859   3.771 -0.1379  0.3559 -0.0651
    1DPPC   C3B18887   9.190  14.985   4.184 -0.0669 -0.0515  0.5553
    1DPPC   C4B18888   9.314  15.342   4.349 -0.2652  0.1074  0.0364
    1DPPC   NC318889  26.044  11.978   2.108  0.2107  0.0398  0.0015
    1DPPC   PO418890  26.161  12.367   2.188  0.0436  0.0644  0.2528
    1DPPC   GL118891  26.070  12.407   2.622  0.0993  0.0261  0.0357
    1DPPC   GL218892  25.918  12.606   2.783 -0.0991 -0.2224  0.0133
    1DPPC   C1A18893  26.399  12.358   2.907  0.5020 -0.1349 -0.2622
    1DPPC   C2A18894  26.369  12.200   3.318 -0.2691 -0.1277 -0.0176
    1DPPC   C3A18895  26.202  12.140   3.767 -0.0482 -0.0521  0.0522
    1DPPC   C4A18896  26.193  12.312   4.194  0.3843  0.2188  0.0700
    1DPPC   C1B18897  25.942  12.467   3.108  0.1688  0.3948  0.0242
    1DPPC   C2B18898  25.708  12.438   3.504 -0.0758  0.0880  0.0364
    1DPPC   C3B18899  25.666  12.321   3.969  0.2390 -0.2245 -0.1862
    1DPPC   C4B18900  25.490  12.488   4.170 -0.1477 -0.2741 -0.1828
    1DPPC   NC318901  27.583  17.970   1.816 -0.1465  0.1335 -0.1898
    1DPPC   PO418902  27.890  18.282   1.738  0.3471  0.2508  0.0500
    1DPPC   GL118903  28.178  18.207   2.033  0.1830  0.2403 -0.0437
    1DPPC   GL218904  28.504  18.262   1.942  0.0486 -0.1073 -0.1564
    1DPPC   C1A18905  28.268  18.277   2.426 -0.1390  0.1176 -0.1429
    1DPPC   C2A18906  28.305  18.252   2.837  0.0140  0.1175 -0.2261
    1DPPC   C3A18907  28.213  18.272   3.178 -0.2406  0.1294  0.1699
    1DPPC   C4A18908  28.188  18.163   3.549  0.0990 -0.2182 -0.1758
    1DPPC   C1B18909  28.714  18.455   2.243  0.1672 -0.1020 -0.1478
    1DPPC   C2B18910  28.689  18.518   2.685  0.2425  0.1344  0.3255
    1DPPC   C3B18911  28.720  18.595   3.118 -0.3695 -0.2642 -0.0617
    1DPPC   C4B18912  28.832  18.578   3.542 -0.0652  0.1576 -0.0380
    1DPPC   NC318913  27.366  12.355   2.184  0.4166  0.1078  0.0574
    1DPPC   PO418914  27.083  12.064   2.046 -0.0319  0.1507  0.0548
    1DPPC   GL118915  26.962  11.995   2.438  0.3580  0.1466  0.0248
    1DPPC   GL218916  26.954  12.274   2.590  0.1831 -0.0104 -0.1132
    1DPPC   C1A18917  27.202  11.807   2.831  0.0480 -0.3249  0.1375
    1DPPC   C2A18918  27.094  11.735   3.220  0.0724  0.0756 -0.2345
    1DPPC   C3A18919  27.117  11.732   3.632 -0.2140 -0.2085  0.1840
    1DPPC   C4A18920  27.130  11.783   4.041  0.2189  0.0200  0.4058
    1DPPC   C1B18921  26.888  12.133   2.936 -0.0321 -0.2443  0.0676
    1DPPC   C2B18922  26.906  12.133   3.382 -0.0855  0.1371 -0.1230
    1DPPC   C3B18923  26.733  11.987   3.814 -0.0297  0.1974  0.1924
    1DPPC   C4B18924  26.680  12.149   4.193  0.1165  0.1839 -0.0411
    1DPPC   NC318925   4.607  17.664   1.816  0.1752 -0.1642 -0.3458
    1DPPC   PO418926   4.081  17.782   1.824 -0.0318 -0.1324 -0.3150
    1DPPC   GL118927   3.856  18.046   2.070 -0.0044 -0.1638  0.0400
    1DPPC   GL218928   3.547  17.894   2.184  0.0183  0.0284 -0.0613
    1DPPC   C1A18929   4.022  18.164   2.487 -0.0282  0.0188 -0.1455
    1DPPC   C2A18930   3.977  18.297   2.879  0.1655 -0.3729  0.1609
    1DPPC   C3A18931   3.939  18.389   3.288 -0.1607 -0.0615  0.0035
    1DPPC   C4A18932   4.049  18.535   3.705  0.3194 -0.1785 -0.0009
    1DPPC   C1B18933   3.708  17.814   2.603  0.2463 -0.0089 -0.2401
    1DPPC   C2B18934   3.659  17.903   3.033 -0.1899  0.0484 -0.1749
    1DPPC   C3B18935   3.621  18.082   3.459  0.2079  0.1052 -0.0421
    1DPPC   C4B18936   3.537  18.107   3.879 -0.2790  0.0418 -0.1261
    1DPPC   NC318937   3.728  26.636   2.809  0.0526  0.0857  0.4082
    1DPPC   PO418938   3.977  26.538   3.211 -0.2192 -0.3749  0.4829
    1DPPC   GL118939   4.117  26.465   3.576  0.1248  0.0106  0.0048
    1DPPC   GL218940   4.287  26.756   3.823 -0.2517 -0.0428  0.3150
    1DPPC   C1A18941   4.029  26.304   3.941 -0.1188 -0.0295  0.2321
    1DPPC   C2A18942   4.184  26.109   4.434  0.1259  0.0924 -0.2480
    1DPPC   C3A18943   4.437  26.031   4.792  0.2558 -0.2070 -0.0058
    1DPPC   C4A18944   4.610  26.202   5.238 -0.0673 -0.0564  0.0595
    1DPPC   C1B18945   4.487  26.520   4.096 -0.0425  0.2531 -0.2484
    1DPPC   C2B18946   4.645  26.494   4.590  0.2029  0.2124  0.0991
    1DPPC   C3B18947   4.617  26.614   5.010  0.2236 -0.3682 -0.0429
    1DPPC   C4B18948   4.932  26.828   5.162  0.4116  0.2152 -0.1814
    1DPPC   NC318949   2.713  11.564   2.396 -0.0087  0.2088  0.1943
    1DPPC   PO418950   2.860  11.194   2.515 -0.4259 -0.0362 -0.2230
    1DPPC   GL118951   3.007  11.183   2.972  0.1838 -0.0909  0.2274
    1DPPC   GL218952   3.161  10.922   3.082  0.0770  0.0692  0.1393
    1DPPC   C1A18953   3.101  11.309   3.335  0.0048 -0.1308 -0.1300
    1DPPC   C2A18954   3.219  11.428   3.743 -0.2249 -0.1478  0.0577
    1DPPC   C3A18955   3.116  11.605   4.154  0.2781 -0.1542 -0.1303
    1DPPC   C4A18956   3.107  11.992   4.334 -0.0573  0.0030  0.0584
    1DPPC   C1B18957   2.782  10.895   3.431 -0.0843  0.3105  0.0945
    1DPPC   C2B18958   2.897  10.960   3.828 -0.0741 -0.0976 -0.3875
    1DPPC   C3B18959   3.155  10.785   4.125  0.4394  0.3038 -0.1640
    1DPPC   C4B18960   3.327  10.776   4.501  0.2866 -0.0845 -0.2110
    1DPPC   NC318961   6.716  13.035   2.341  0.3224  0.0046 -0.1099
    1DPPC   PO418962   6.380  12.762   2.561  0.0030 -0.1346  0.0375
    1DPPC   GL118963   6.421  12.972   2.915 -0.1525 -0.3267 -0.0484
    1DPPC   GL218964   6.548  13.309   2.733  0.2764 -0.0129  0.0139
    1DPPC   C1A18965   6.396  13.145   3.352  0.1633  0.0536 -0.4144
    1DPPC   C2A18966   6.339  13.101   3.766  0.2998 -0.2472 -0.0875
    1DPPC   C3A18967   6.166  13.180   4.168 -0.0414 -0.1055  0.0600
    1DPPC   C4A18968   6.137  13.029   4.615 -0.1657  0.1385 -0.1674
    1DPPC   C1B18969   6.428  13.554   2.998 -0.0507 -0.2296  0.0695
    1DPPC   C2B18970   6.340  13.617   3.482 -0.1172 -0.0688 -0.0564
    1DPPC   C3B18971   6.279  13.625   3.899  0.1911 -0.1245  0.1715
    1DPPC   C4B18972   6.278  13.626   4.326  0.0522  0.0280  0.0137
    1DPPC   NC318973  24.693  20.474   2.172  0.3906  0.0664  0.2811
    1DPPC   PO418974  25.104  20.341   2.158  0.0191  0.0910  0.0665
    1DPPC   GL118975  24.871  20.067   2.491  0.1738  0.0444 -0.2413
    1DPPC   GL218976  24.669  20.256   2.634  0.2460  0.1011 -0.0894
    1DPPC   C1A18977  24.987  19.911   2.853 -0.0992  0.0079  0.0447
    1DPPC   C2A18978  24.939  19.788   3.203  0.1123 -0.2241  0.1188
    1DPPC   C3A18979  24.914  19.776   3.609  0.0702  0.0709  0.1304
    1DPPC   C4A18980  24.666  19.937   3.870  0.5304 -0.1297 -0.2197
    1DPPC   C1B18981  24.663  20.327   3.054  0.0747  0.2967  0.0938
    1DPPC   C2B18982  24.756  20.307   3.434 -0.1698  0.1226 -0.3639
    1DPPC   C3B18983  24.879  20.408   3.799  0.0490 -0.0217  0.0947
    1DPPC   C4B18984  25.132  20.340   4.135 -0.0754  0.1812 -0.1424
    1DPPC   NC318985  19.831  29.642   3.020  0.0643  0.0272  0.2176
    1DPPC   PO418986  20.307  29.537   3.146 -0.0929 -0.3859 -0.3384
    1DPPC   GL118987  20.128  29.700   3.598 -0.1265  0.1081 -0.2384
    1DPPC   GL218988  19.770  29.585   3.520 -0.4368 -0.2628 -0.1502
    1DPPC   C1A18989  19.992  29.655   4.006  0.1150  0.1877  0.1129
    1DPPC   C2A18990  19.720  29.723   4.320 -0.1079 -0.2225 -0.1326
    1DPPC   C3A18991  19.286  29.979   4.566 -0.3129  0.1952 -0.1884
    1DPPC   C4A18992  18.844  30.002   4.771  0.0985  0.2311 -0.0443
    1DPPC   C1B18993  19.535  29.761   3.874  0.0689 -0.0415  0.3370
    1DPPC   C2B18994  19.173  29.856   3.905  0.0151 -0.2432 -0.3598
    1DPPC   C3B18995  18.885  29.696   3.714  0.1415 -0.1517 -0.2211
    1DPPC   C4B18996  18.664  29.542   3.378  0.2497 -0.1360 -0.1439
    1DPPC   NC318997  25.514  19.278   1.148  0.0701  0.1396  0.0782
    1DPPC   PO418998  25.788  19.381   1.490  0.1340  0.1188 -0.1202
    1DPPC   GL118999  25.957  19.313   1.929 -0.1022  0.0903 -0.0628
    1DPPC   GL219000  25.723  19.470   2.069 -0.0304 -0.0176 -0.0278
    1DPPC   C1A19001  26.201  19.396   2.298  0.1254 -0.2616  0.2398
    1DPPC   C2A19002  26.556  19.597   2.383 -0.2768  0.0363  0.3117
    1DPPC   C3A19003  26.778  19.788   2.747  0.3802  0.2364  0.1974
    1DPPC   C4A19004  26.756  19.902   3.148 -0.3373 -0.0978  0.2130
    1DPPC   C1B19005  25.601  19.555   2.536  0.0297  0.0264 -0.0269
    1DPPC   C2B19006  25.315  19.436   2.894 -0.0160 -0.0831  0.0432
    1DPPC   C3B19007  25.101  19.274   3.335 -0.0593  0.1553 -0.1198
    1DPPC   C4B19008  25.099  19.322   3.810 -0.0357  0.2314  0.0397
    1DPPC   NC319009  10.365  14.759   2.610  0.1089  0.1784  0.0996
    1DPPC   PO419010  10.432  14.761   3.011  0.2604 -0.0300  0.0042
    1DPPC   GL119011  10.255  14.940   3.353  0.0240 -0.0849  0.0539
    1DPPC   GL219012  10.258  15.299   3.434  0.4444  0.2513  0.1740
    1DPPC   C1A19013  10.233  14.877   3.811 -0.0061 -0.0268 -0.0033
    1DPPC   C2A19014  10.248  14.866   4.214  0.1734 -0.4428  0.2486
    1DPPC   C3A19015  10.446  15.003   4.644  0.2636 -0.2946 -0.1031
    1DPPC   C4A19016  10.496  14.767   4.997 -0.2234 -0.1479 -0.1665
    1DPPC   C1B19017  10.313  15.488   3.746 -0.1030 -0.4731  0.2972
    1DPPC   C2B19018  10.460  15.414   4.223  0.0511 -0.2618 -0.0608
    1DPPC   C3B19019  10.546  15.477   4.615 -0.2404 -0.3823 -0.0716
    1DPPC   C4B19020  10.910  15.690   4.645 -0.0671  0.0382 -0.1345
    1DPPC   NC319021  11.811  12.895   3.043 -0.1055 -0.1424 -0.1387
    1DPPC   PO419022  11.827  13.290   2.920 -0.2254 -0.0373 -0.0083
    1DPPC   GL119023  11.852  13.322   3.325 -0.4069 -0.0297 -0.0719
    1DPPC   GL219024  11.541  13.120   3.463  0.0003 -0.2530  0.2472
    1DPPC   C1A19025  11.891  13.576   3.736 -0.1253  0.1275 -0.3418
    1DPPC   C2A19026  11.694  13.750   4.106 -0.2774 -0.0853 -0.2686
    1DPPC   C3A19027  11.678  13.879   4.529 -0.0343  0.1187  0.0112
    1DPPC   C4A19028  11.604  13.974   4.959  0.1805  0.1142 -0.1006
    1DPPC   C1B19029  11.582  13.218   3.888  0.1941 -0.1949 -0.1361
    1DPPC   C2B19030  11.644  13.324   4.292 -0.2214 -0.0731 -0.1330
    1DPPC   C3B19031  11.282  13.582   4.569  0.2493 -0.2221  0.1554
    1DPPC   C4B19032  11.154  13.796   5.010  0.0102 -0.4085 -0.0420
    1DPPC   NC319033  29.215   3.726   3.327  0.0710  0.2899  0.0818
    1DPPC   PO419034  28.831   3.505   3.286  0.1669  0.0773  0.1298
    1DPPC   GL119035  28.666   3.676   3.711 -0.0364 -0.1731  0.1125
    1DPPC   GL219036  28.932   3.954   3.773 -0.3302 -0.0273  0.2290
    1DPPC   C1A19037  28.574   3.541   4.223 -0.1571  0.1747 -0.0458
    1DPPC   C2A19038  28.862   3.586   4.646 -0.1484  0.2311  0.0467
    1DPPC   C3A19039  29.029   4.050   4.829  0.1148 -0.0573  0.2339
    1DPPC   C4A19040  28.782   4.223   5.023  0.0216 -0.0852 -0.1256
    1DPPC   C1B19041  29.054   3.730   4.136 -0.0543  0.1917  0.1000
    1DPPC   C2B19042  28.819   3.946   4.341 -0.1154 -0.0994 -0.0121
    1DPPC   C3B19043  28.550   3.999   4.668  0.1355 -0.1138 -0.1527
    1DPPC   C4B19044  28.425   3.763   5.044 -0.0148 -0.1144  0.1222
    1DPPC   NC319045   7.282  14.471   1.797 -0.0930 -0.3314  0.0008
    1DPPC   PO419046   7.201  14.857   2.133 -0.1403 -0.0627 -0.1184
    1DPPC   GL119047   7.007  15.209   2.380 -0.0407 -0.0294 -0.0847
    1DPPC   GL219048   6.901  14.970   2.544  0.0390 -0.0796  0.0041
    1DPPC   C1A19049   6.877  15.563   2.622 -0.1437  0.0996  0.0769
    1DPPC   C2A19050   6.812  15.615   2.952  0.3455  0.0117  0.2143
    1DPPC   C3A19051   6.764  15.629   3.350 -0.1466 -0.1157  0.2407
    1DPPC   C4A19052   6.585  15.743   3.660  0.3959 -0.0476  0.0888
    1DPPC   C1B19053   6.612  15.154   2.865  0.2194  0.1691  0.1796
    1DPPC   C2B19054   6.440  15.221   3.210 -0.0881 -0.0145 -0.0077
    1DPPC   C3B19055   6.408  15.286   3.636 -0.3100  0.0942 -0.3993
    1DPPC   C4B19056   6.488  15.229   4.011  0.0819 -0.0906  0.1373
    1DPPC   NC319057  29.540  14.473   2.035 -0.0972 -0.3977 -0.0427
    1DPPC   PO419058  29.104  14.703   2.089  0.1221 -0.0702 -0.2350
    1DPPC   GL119059  29.334  14.743   2.439 -0.2002  0.2300 -0.0941
    1DPPC   GL219060  29.226  14.985   2.648  0.1132  0.1507  0.0696
    1DPPC   C1A19061  29.470  14.548   2.876  0.1071  0.1817  0.0493
    1DPPC   C2A19062  29.421  14.560   3.280 -0.4979  0.3455 -0.1300
    1DPPC   C3A19063  29.427  14.555   3.684 -0.2096  0.1009  0.2125
    1DPPC   C4A19064  29.398  14.645   4.114  0.3226  0.0861 -0.0465
    1DPPC   C1B19065  29.323  15.000   3.028 -0.1551  0.0871  0.1962
    1DPPC   C2B19066  29.289  15.022   3.444 -0.0728  0.2191 -0.2664
    1DPPC   C3B19067  29.437  15.063   3.868 -0.2091  0.3881  0.2327
    1DPPC   C4B19068  29.832  15.040   4.117 -0.0779 -0.2076  0.1629
    1DPPC   NC319069   0.744  12.388   2.092  0.2217  0.2307 -0.3646
    1DPPC   PO419070   0.693  12.039   2.326 -0.3972  0.1133  0.2053
    1DPPC   GL119071   0.714  12.043   2.761 -0.2269  0.0384  0.1188
    1DPPC   GL219072   1.090  11.968   2.884 -0.1470  0.0809 -0.0428
    1DPPC   C1A19073   0.699  11.877   3.172 -0.0753  0.0985  0.2357
    1DPPC   C2A19074   0.820  11.957   3.580  0.2101 -0.0880 -0.0453
    1DPPC   C3A19075   0.806  12.050   4.029 -0.3957 -0.0038 -0.0221
    1DPPC   C4A19076   0.924  12.135   4.447 -0.3352  0.1021 -0.1120
    1DPPC   C1B19077   1.255  11.869   3.158  0.1223  0.0989 -0.0523
    1DPPC   C2B19078   1.173  11.583   3.480 -0.1696  0.0013 -0.1087
    1DPPC   C3B19079   1.191  11.664   3.886  0.0692  0.1541 -0.0587
    1DPPC   C4B19080   1.031  11.515   4.341 -0.1227  0.0856 -0.1098
    1DPPC   NC319081   5.385  14.636   2.320 -0.2911  0.0558 -0.4321
    1DPPC   PO419082   5.762  14.987   2.251 -0.1080  0.0685 -0.1742
    1DPPC   GL119083   5.603  14.992   2.660  0.0209  0.2101  0.1488
    1DPPC   GL219084   5.307  15.081   2.725 -0.1580  0.0776 -0.0883
    1DPPC   C1A19085   5.720  14.777   3.008  0.1493 -0.4105 -0.2802
    1DPPC   C2A19086   5.671  14.860   3.468 -0.2008 -0.2995  0.1978
    1DPPC   C3A19087   5.634  14.854   3.869 -0.2249 -0.0899 -0.1381
    1DPPC   C4A19088   5.593  14.959   4.332 -0.1163  0.0429  0.0755
    1DPPC   C1B19089   5.333  15.102   3.100  0.1479 -0.2430  0.3288
    1DPPC   C2B19090   5.298  15.234   3.573 -0.1176 -0.1668  0.2475
    1DPPC   C3B19091   5.450  15.510   4.023 -0.0617 -0.1696 -0.0034
    1DPPC   C4B19092   5.626  15.498   4.460 -0.0522 -0.1312 -0.1087
    1DPPC   NC319093  16.645  12.717   3.140  0.0933 -0.1846  0.0165
    1DPPC   PO419094  16.558  13.133   3.345  0.3447 -0.4458  0.1775
    1DPPC   GL119095  16.890  13.184   3.611 -0.0184  0.0419 -0.1195
    1DPPC   GL219096  16.659  13.323   3.819 -0.1529  0.3451 -0.3985
    1DPPC   C1A19097  17.125  13.125   3.994  0.1464 -0.2372 -0.1115
    1DPPC   C2A19098  17.296  13.178   4.326 -0.0815  0.2034  0.1870
    1DPPC   C3A19099  17.251  13.240   4.747  0.4047  0.0842  0.0993
    1DPPC   C4A19100  17.011  13.021   5.033  0.2098 -0.2688  0.2757
    1DPPC   C1B19101  16.664  13.303   4.240 -0.1640  0.1851  0.0537
    1DPPC   C2B19102  16.763  13.258   4.664  0.0918  0.1145  0.1807
    1DPPC   C3B19103  16.692  13.393   5.067  0.1181  0.1518  0.1239
    1DPPC   C4B19104  16.422  13.491   5.377  0.1969  0.2358  0.2385
    1DPPC   NC319105  28.123  13.752   1.799  0.0982  0.0966  0.0679
    1DPPC   PO419106  27.936  13.451   2.069  0.2795  0.1920 -0.1750
    1DPPC   GL119107  28.286  13.589   2.273 -0.0045  0.0977 -0.0921
    1DPPC   GL219108  28.407  13.378   2.583 -0.1399 -0.1091 -0.0639
    1DPPC   C1A19109  28.591  13.823   2.461  0.1971 -0.0986 -0.0525
    1DPPC   C2A19110  28.721  14.019   2.935  0.2096 -0.0177  0.0051
    1DPPC   C3A19111  28.826  14.068   3.423 -0.1197  0.1805  0.0810
    1DPPC   C4A19112  28.529  13.921   3.767 -0.0019 -0.1571 -0.0732
    1DPPC   C1B19113  28.318  13.167   2.865  0.0451 -0.0194  0.2106
    1DPPC   C2B19114  28.375  13.116   3.230 -0.1639 -0.0973 -0.2367
    1DPPC   C3B19115  28.342  12.976   3.672 -0.0909 -0.2317 -0.4311
    1DPPC   C4B19116  28.787  13.016   4.018 -0.0942  0.0392 -0.2114
    1DPPC   NC319117  28.875  23.867   2.629  0.0228  0.1286 -0.0520
    1DPPC   PO419118  28.418  24.045   2.565 -0.0443  0.3084  0.2755
    1DPPC   GL119119  28.384  24.094   3.008 -0.1341  0.0075  0.1142
    1DPPC   GL219120  28.575  23.867   3.009  0.1496 -0.1678 -0.0965
    1DPPC   C1A19121  28.247  23.979   3.423  0.0154  0.0252 -0.0561
    1DPPC   C2A19122  28.111  23.782   3.789 -0.1172 -0.1169  0.1433
    1DPPC   C3A19123  28.302  23.360   3.922  0.1347 -0.0253  0.0666
    1DPPC   C4A19124  28.391  22.933   3.992 -0.2574 -0.2451  0.0366
    1DPPC   C1B19125  28.675  23.640   3.498 -0.0329 -0.0626  0.2037
    1DPPC   C2B19126  28.704  23.547   3.844 -0.1436  0.1895  0.2360
    1DPPC   C3B19127  28.781  23.566   4.243 -0.0584  0.2318 -0.0504
    1DPPC   C4B19128  28.815  23.658   4.638 -0.0260 -0.1077  0.0587
    1DPPC   NC319129   3.012  16.287   1.950 -0.4147  0.0720 -0.0902
    1DPPC   PO419130   3.089  15.867   2.059  0.1863  0.0078 -0.1045
    1DPPC   GL119131   2.918  16.046   2.422 -0.0452 -0.1020  0.2162
    1DPPC   GL219132   2.996  16.390   2.499 -0.1474 -0.1258  0.2647
    1DPPC   C1A19133   2.981  15.963   2.778 -0.1955  0.0864 -0.1455
    1DPPC   C2A19134   3.045  16.054   3.180  0.1146 -0.0705  0.0781
    1DPPC   C3A19135   3.028  16.192   3.587  0.0212  0.0122 -0.0228
    1DPPC   C4A19136   3.041  16.108   4.077 -0.2214 -0.0164  0.0324
    1DPPC   C1B19137   3.067  16.524   3.003  0.0273  0.2380 -0.0378
    1DPPC   C2B19138   3.136  16.624   3.398 -0.1660 -0.0940 -0.1154
    1DPPC   C3B19139   3.208  16.775   3.773 -0.2959 -0.0316  0.1000
    1DPPC   C4B19140   3.277  16.569   4.165  0.1246 -0.0845  0.2443
    1DPPC   NC319141   4.941  18.675   1.482  0.1719  0.0356 -0.0520
    1DPPC   PO419142   5.250  18.562   1.769  0.1806 -0.0399 -0.2681
    1DPPC   GL119143   4.859  18.543   1.942 -0.0775 -0.1701  0.1147
    1DPPC   GL219144   4.690  18.789   2.082 -0.2842 -0.1608 -0.1864
    1DPPC   C1A19145   4.759  18.242   2.258 -0.0642 -0.0234 -0.3579
    1DPPC   C2A19146   4.609  18.281   2.709  0.0769  0.0262  0.2729
    1DPPC   C3A19147   4.446  18.243   3.147 -0.0822 -0.2694 -0.0648
    1DPPC   C4A19148   4.507  18.403   3.567  0.2500 -0.0706 -0.2054
    1DPPC   C1B19149   4.781  18.736   2.450  0.0713 -0.2402  0.1501
    1DPPC   C2B19150   4.734  18.824   2.877 -0.0712 -0.0286 -0.0772
    1DPPC   C3B19151   4.839  18.670   3.218  0.0019  0.1398  0.1152
    1DPPC   C4B19152   5.007  18.358   3.480 -0.2071 -0.0241 -0.0392
    1DPPC   NC319153   5.581  16.662   1.838 -0.2029 -0.3625 -0.0508
    1DPPC   PO419154   5.232  16.835   1.876  0.0986  0.2784  0.1519
    1DPPC   GL119155   4.867  16.675   2.209  0.1333  0.0634  0.0800
    1DPPC   GL219156   4.883  16.420   2.289 -0.1078 -0.2307  0.1141
    1DPPC   C1A19157   4.847  16.917   2.658  0.3624 -0.1697 -0.4241
    1DPPC   C2A19158   4.633  16.801   3.035  0.0064 -0.3801 -0.0344
    1DPPC   C3A19159   4.692  16.977   3.511 -0.2982  0.1117  0.4059
    1DPPC   C4A19160   4.759  17.263   3.874  0.3780 -0.0224  0.1264
    1DPPC   C1B19161   4.963  16.427   2.692  0.2314 -0.1012 -0.0159
    1DPPC   C2B19162   5.135  16.569   2.935  0.2066 -0.0095 -0.1058
    1DPPC   C3B19163   5.068  16.669   3.382 -0.1209 -0.0991  0.1254
    1DPPC   C4B19164   5.129  16.808   3.836 -0.0622  0.3158  0.3146
    1DPPC   NC319165   7.817  17.524   2.230 -0.1037 -0.0098 -0.0279
    1DPPC   PO419166   7.719  17.882   1.994  0.0255 -0.1500 -0.0920
    1DPPC   GL119167   7.793  18.019   2.411  0.1325 -0.1373 -0.3100
    1DPPC   GL219168   8.011  18.284   2.698  0.0000  0.1216  0.1975
    1DPPC   C1A19169   7.534  18.108   2.794 -0.1874  0.1918 -0.5140
    1DPPC   C2A19170   7.613  18.288   3.199  0.1673  0.0839  0.3282
    1DPPC   C3A19171   7.751  18.196   3.478  0.0332 -0.0470  0.0160
    1DPPC   C4A19172   8.071  17.810   3.640 -0.1712  0.0435 -0.1533
    1DPPC   C1B19173   8.032  17.972   2.960  0.1562 -0.4683 -0.1664
    1DPPC   C2B19174   8.421  17.867   3.215 -0.0377 -0.1539 -0.0042
    1DPPC   C3B19175   8.752  17.900   3.504  0.1461  0.0246 -0.0156
    1DPPC   C4B19176   8.975  18.002   3.901 -0.0818 -0.0589 -0.0281
    1DPPC   NC319177   0.358  23.163   2.060 -0.0780 -0.0591  0.0938
    1DPPC   PO419178   0.093  22.875   2.209 -0.0179  0.1324  0.3091
    1DPPC   GL119179   0.077  22.822   2.622  0.1920 -0.1458  0.0557
    1DPPC   GL219180  30.210  22.780   2.836  0.0512  0.0672 -0.2272
    1DPPC   C1A19181   0.335  22.747   2.993  0.4515  0.2382  0.2273
    1DPPC   C2A19182   0.313  22.811   3.438 -0.0812 -0.0958 -0.3467
    1DPPC   C3A19183   0.551  22.745   3.875 -0.1499 -0.3269  0.0953
    1DPPC   C4A19184   0.685  22.766   4.339  0.3396 -0.0093 -0.1119
    1DPPC   C1B19185  30.178  22.696   3.223 -0.1887 -0.1239  0.1258
    1DPPC   C2B19186  30.265  22.631   3.617 -0.1167 -0.1659 -0.1061
    1DPPC   C3B19187  30.319  22.511   4.031  0.1478  0.0027  0.3480
    1DPPC   C4B19188  30.307  22.314   4.437 -0.0465 -0.0529  0.1956
    1DPPC   NC319189   0.670  18.126   1.691  0.2071  0.0424  0.1734
    1DPPC   PO419190   0.798  17.733   1.875 -0.0664  0.0322  0.2632
    1DPPC   GL119191   1.052  17.725   2.249  0.2912  0.2059 -0.0036
    1DPPC   GL219192   1.184  17.982   2.299 -0.1766 -0.0377 -0.1174
    1DPPC   C1A19193   1.017  17.769   2.729 -0.1334  0.0002  0.2994
    1DPPC   C2A19194   0.897  17.662   3.005  0.0166 -0.0113 -0.0175
    1DPPC   C3A19195   0.885  17.590   3.405 -0.1231 -0.0164  0.1223
    1DPPC   C4A19196   0.964  17.470   3.751 -0.0428 -0.1934  0.1097
    1DPPC   C1B19197   1.479  17.975   2.648  0.2151 -0.0980 -0.0457
    1DPPC   C2B19198   1.434  17.892   2.978 -0.2221  0.1851 -0.3310
    1DPPC   C3B19199   1.263  17.903   3.348  0.1342  0.0741  0.3416
    1DPPC   C4B19200   1.137  17.941   3.813 -0.2140 -0.0957  0.0741
    1DPPC   NC319201   2.640  19.143   1.552  0.0272 -0.0259  0.0288
    1DPPC   PO419202   2.353  19.439   1.707 -0.1564  0.3094  0.0677
    1DPPC   GL119203   2.170  19.247   2.103  0.0555  0.2551  0.1163
    1DPPC   GL219204   1.890  19.326   2.103  0.1035 -0.1171  0.1538
    1DPPC   C1A19205   2.191  19.099   2.478 -0.5055 -0.1678 -0.1234
    1DPPC   C2A19206   2.176  19.106   2.796  0.0149  0.1295 -0.0485
    1DPPC   C3A19207   2.133  19.098   3.167 -0.0871  0.1779  0.0480
    1DPPC   C4A19208   2.055  19.166   3.539  0.0587  0.3100 -0.2668
    1DPPC   C1B19209   1.662  19.205   2.497 -0.0351 -0.1360 -0.3284
    1DPPC   C2B19210   1.643  19.018   2.903 -0.0547  0.2316 -0.4063
    1DPPC   C3B19211   1.633  19.004   3.356 -0.0723 -0.1914 -0.0546
    1DPPC   C4B19212   1.589  18.987   3.758  0.1784 -0.2216  0.2100
    1DPPC   NC319213   1.698  12.783   2.302 -0.3155 -0.0117  0.0616
    1DPPC   PO419214   2.099  12.996   2.151  0.0225 -0.0514  0.1272
    1DPPC   GL119215   2.289  13.111   2.570  0.0357 -0.0133 -0.3240
    1DPPC   GL219216   2.364  13.426   2.556  0.1827  0.0472  0.2568
    1DPPC   C1A19217   2.046  13.174   2.981 -0.1538 -0.1131  0.3055
    1DPPC   C2A19218   1.988  13.178   3.391  0.0612  0.0128 -0.1809
    1DPPC   C3A19219   1.982  13.064   3.863  0.3294 -0.2648  0.5064
    1DPPC   C4A19220   1.759  13.155   4.292  0.1361  0.0310  0.1988
    1DPPC   C1B19221   2.251  13.636   2.924 -0.1331 -0.0199  0.0802
    1DPPC   C2B19222   2.300  13.545   3.360  0.0608  0.2574 -0.0513
    1DPPC   C3B19223   2.210  13.501   3.747 -0.0185  0.0684 -0.1055
    1DPPC   C4B19224   2.183  13.853   4.029  0.1965  0.0676 -0.1250
    1DPPC   NC319225  10.301  29.207   3.147 -0.1213  0.1599 -0.1096
    1DPPC   PO419226  10.514  28.787   3.313 -0.1694 -0.0109 -0.0933
    1DPPC   GL119227  10.307  28.677   3.652 -0.1397 -0.1574 -0.1935
    1DPPC   GL219228  10.172  28.407   3.782 -0.2379  0.1713  0.1264
    1DPPC   C1A19229  10.302  28.805   4.072  0.0001  0.0340  0.1405
    1DPPC   C2A19230  10.205  28.817   4.513 -0.1370  0.0674  0.1182
    1DPPC   C3A19231  10.007  28.990   4.766  0.1964  0.2969  0.0138
    1DPPC   C4A19232   9.734  29.312   4.862 -0.0942  0.0325  0.1650
    1DPPC   C1B19233  10.297  28.298   4.189  0.0534  0.1519 -0.3413
    1DPPC   C2B19234  10.519  28.429   4.606  0.0082  0.0071 -0.0423
    1DPPC   C3B19235  10.710  28.314   4.959 -0.1751  0.3148 -0.2239
    1DPPC   C4B19236  11.113  28.435   5.264  0.1448 -0.0524  0.2006
    1DPPC   NC319237   4.392  11.554   2.442 -0.0227 -0.4123  0.3540
    1DPPC   PO419238   4.865  11.657   2.663 -0.0406  0.1888  0.0222
    1DPPC   GL119239   4.917  11.727   3.009  0.0475  0.1135 -0.2011
    1DPPC   GL219240   5.065  11.975   3.015 -0.1191  0.1419 -0.0836
    1DPPC   C1A19241   4.810  11.591   3.383 -0.1146  0.1769 -0.3022
    1DPPC   C2A19242   4.762  11.603   3.814 -0.0824  0.0054  0.3142
    1DPPC   C3A19243   5.038  11.561   4.209  0.2354  0.0630  0.2123
    1DPPC   C4A19244   5.194  11.306   4.464 -0.0663 -0.2941  0.1563
    1DPPC   C1B19245   5.020  12.020   3.449  0.0390 -0.0532 -0.0414
    1DPPC   C2B19246   5.174  11.932   3.867  0.1165  0.3215  0.0579
    1DPPC   C3B19247   5.338  12.026   4.176  0.1642  0.0605 -0.2893
    1DPPC   C4B19248   5.420  11.820   4.497  0.0084 -0.1923 -0.3884
    1DPPC   NC319249   2.782  17.823   1.489  0.0238  0.0978 -0.1292
    1DPPC   PO419250   2.790  17.476   1.732  0.1166 -0.1058 -0.1249
    1DPPC   GL119251   2.949  17.343   2.107 -0.0853 -0.1413  0.2532
    1DPPC   GL219252   3.193  17.164   2.158  0.1573  0.0800  0.0980
    1DPPC   C1A19253   3.265  17.448   2.513  0.2227 -0.0640  0.3384
    1DPPC   C2A19254   3.406  17.512   2.840  0.0331 -0.2675 -0.1000
    1DPPC   C3A19255   3.392  17.542   3.254 -0.2354 -0.1121 -0.1502
    1DPPC   C4A19256   3.183  17.746   3.626 -0.2487 -0.1994 -0.1258
    1DPPC   C1B19257   3.106  16.940   2.599  0.0084  0.1034  0.2318
    1DPPC   C2B19258   3.220  17.037   3.037 -0.2430 -0.1211  0.0188
    1DPPC   C3B19259   3.205  17.167   3.499 -0.2488  0.0555 -0.1342
    1DPPC   C4B19260   3.378  17.306   3.792  0.1433  0.0106 -0.1215
    1DPPC   NC319261   1.338  13.633   2.084 -0.3759  0.1759  0.0278
    1DPPC   PO419262   1.370  13.110   2.114 -0.2077 -0.2405  0.1196
    1DPPC   GL119263   1.377  13.215   2.522  0.0421  0.0140  0.0812
    1DPPC   GL219264   1.075  13.054   2.702  0.1889  0.0453  0.1432
    1DPPC   C1A19265   1.575  13.215   2.845 -0.2152  0.0123 -0.0520
    1DPPC   C2A19266   1.500  13.179   3.326 -0.0699  0.0503 -0.0673
    1DPPC   C3A19267   1.351  13.235   3.731  0.1638 -0.1730  0.0143
    1DPPC   C4A19268   1.146  13.085   4.170 -0.0745  0.3320 -0.1932
    1DPPC   C1B19269   1.130  12.976   3.029 -0.1688 -0.1674 -0.0357
    1DPPC   C2B19270   1.002  12.868   3.364 -0.0095  0.1910 -0.1558
    1DPPC   C3B19271   1.018  12.722   3.767  0.1102 -0.2327  0.1230
    1DPPC   C4B19272   1.083  12.483   4.147  0.3766  0.1722 -0.1047
    1DPPC   NC319273   5.535  18.135   1.786  0.0999  0.1773  0.2425
    1DPPC   PO419274   5.747  17.807   1.834  0.0727  0.1380 -0.1166
    1DPPC   GL119275   5.454  17.673   2.126  0.0594 -0.0598 -0.2891
    1DPPC   GL219276   5.237  18.016   2.171  0.4269 -0.0336  0.1576
    1DPPC   C1A19277   5.406  17.597   2.611 -0.0788 -0.2153  0.0426
    1DPPC   C2A19278   5.297  17.633   3.025  0.0447  0.2081 -0.0883
    1DPPC   C3A19279   5.223  17.796   3.352 -0.3629 -0.1527  0.2157
    1DPPC   C4A19280   5.027  17.666   3.682 -0.1002  0.2009 -0.0203
    1DPPC   C1B19281   5.000  17.931   2.542  0.0951  0.2540  0.0449
    1DPPC   C2B19282   4.956  18.030   2.965 -0.3083 -0.0189 -0.3145
    1DPPC   C3B19283   4.745  17.947   3.403 -0.0239 -0.0347  0.0061
    1DPPC   C4B19284   4.527  17.901   3.820 -0.2050  0.0172 -0.0253
    1DPPC   NC319285   1.630  10.965   2.429 -0.1837 -0.0409  0.4255
    1DPPC   PO419286   1.475  11.260   2.641  0.1006 -0.1013 -0.0841
    1DPPC   GL119287   1.474  11.118   3.032 -0.2188 -0.0410 -0.3558
    1DPPC   GL219288   1.594  10.808   2.978  0.1877 -0.0815 -0.2256
    1DPPC   C1A19289   1.568  11.293   3.392 -0.1731 -0.1751 -0.1997
    1DPPC   C2A19290   1.517  11.242   3.824 -0.3022  0.0722 -0.0902
    1DPPC   C3A19291   1.458  11.347   4.224  0.0839  0.1458  0.1253
    1DPPC   C4A19292   1.370  11.834   4.328 -0.2605 -0.1534 -0.2122
    1DPPC   C1B19293   1.710  10.828   3.400  0.0284  0.0668  0.4229
    1DPPC   C2B19294   1.781  10.833   3.797 -0.4252 -0.2707 -0.3050
    1DPPC   C3B19295   1.766  10.883   4.222  0.0896 -0.1027 -0.2456
    1DPPC   C4B19296   1.894  10.842   4.575  0.1706  0.0281  0.0710
    1DPPC   NC319297  12.673   1.244   2.714 -0.0961 -0.2478  0.1040
    1DPPC   PO419298  12.432   1.695   2.833  0.4492  0.1225  0.1305
    1DPPC   GL119299  12.345   1.651   3.160 -0.2385 -0.0629 -0.1263
    1DPPC   GL219300  12.610   1.620   3.395 -0.3608  0.2509  0.3139
    1DPPC   C1A19301  12.095   1.548   3.521 -0.0520  0.2147  0.2311
    1DPPC   C2A19302  12.168   1.569   3.937  0.0945  0.0853  0.0222
    1DPPC   C3A19303  12.132   1.564   4.300  0.0571  0.1611  0.4453
    1DPPC   C4A19304  12.435   1.185   4.580  0.2022  0.1764  0.1621
    1DPPC   C1B19305  12.653   1.779   3.866  0.1011 -0.0604  0.1876
    1DPPC   C2B19306  12.593   1.810   4.298 -0.2609  0.0006 -0.1698
    1DPPC   C3B19307  12.828   1.633   4.585 -0.1622 -0.2416  0.4492
    1DPPC   C4B19308  13.120   1.349   4.955 -0.1111  0.3380 -0.2952
    1DPPC   NC319309   7.027  19.829   1.519 -0.0382  0.0841 -0.2599
    1DPPC   PO419310   7.183  19.539   1.781 -0.0665  0.2332 -0.2048
    1DPPC   GL119311   6.999  19.603   2.079  0.2321 -0.2480  0.0109
    1DPPC   GL219312   6.843  19.923   1.999  0.1598 -0.0760 -0.0267
    1DPPC   C1A19313   6.841  19.535   2.423 -0.1647 -0.1644  0.2692
    1DPPC   C2A19314   6.736  19.444   2.867  0.2290 -0.1951  0.1449
    1DPPC   C3A19315   6.499  19.357   3.322  0.0806 -0.0022  0.1742
    1DPPC   C4A19316   6.182  19.498   3.598  0.1856 -0.2464  0.0270
    1DPPC   C1B19317   6.868  20.042   2.385  0.2688  0.3147 -0.1080
    1DPPC   C2B19318   6.857  20.319   2.771 -0.3786 -0.1233 -0.0413
    1DPPC   C3B19319   6.811  20.390   3.177 -0.0409  0.1200 -0.1789
    1DPPC   C4B19320   6.544  20.364   3.547  0.1506 -0.2346 -0.0503
    1DPPC   NC319321  29.556  23.940   2.311 -0.1211 -0.0774  0.0859
    1DPPC   PO419322  29.214  24.119   2.343 -0.1553  0.2006  0.1214
    1DPPC   GL119323  29.150  24.342   2.725  0.3505  0.1679 -0.1509
    1DPPC   GL219324  28.812  24.323   2.868 -0.1409 -0.0670  0.2312
    1DPPC   C1A19325  29.219  24.357   3.195  0.1020 -0.0421  0.0709
    1DPPC   C2A19326  29.216  24.411   3.591 -0.1356  0.0766 -0.1883
    1DPPC   C3A19327  29.055  24.222   4.062 -0.0300 -0.0580  0.0655
    1DPPC   C4A19328  28.966  24.192   4.485 -0.0385  0.2384 -0.1774
    1DPPC   C1B19329  28.763  24.164   3.325 -0.0296  0.2844 -0.1341
    1DPPC   C2B19330  28.625  24.095   3.759  0.0025  0.1238  0.2188
    1DPPC   C3B19331  28.536  23.944   4.217 -0.0475 -0.0612  0.0238
    1DPPC   C4B19332  28.469  24.145   4.597  0.0476 -0.1318 -0.0396
    1DPPC   NC319333   1.190  15.579   1.891  0.1658  0.0642  0.2541
    1DPPC   PO419334   1.466  15.738   2.173  0.4335 -0.5290  0.2469
    1DPPC   GL119335   1.234  15.646   2.564  0.0886  0.0504  0.4509
    1DPPC   GL219336   1.034  15.916   2.475  0.0199 -0.2970  0.1957
    1DPPC   C1A19337   1.160  15.674   2.928 -0.0171  0.1986 -0.2133
    1DPPC   C2A19338   1.064  15.991   3.212  0.2610  0.3504  0.2779
    1DPPC   C3A19339   1.139  16.167   3.566 -0.1505  0.1277  0.0509
    1DPPC   C4A19340   1.176  16.336   3.978 -0.1217  0.0546 -0.1455
    1DPPC   C1B19341   0.766  15.939   2.767  0.1521  0.0231 -0.0056
    1DPPC   C2B19342   0.589  16.202   3.050  0.0943 -0.1685  0.0810
    1DPPC   C3B19343   0.605  16.180   3.415  0.0308  0.0689 -0.1210
    1DPPC   C4B19344   0.707  16.134   3.847  0.0239 -0.0633 -0.1869
    1DPPC   NC319345   0.116  12.480   1.556 -0.0364 -0.0025 -0.1198
    1DPPC   PO419346   0.319  12.615   1.904  0.1076 -0.1660  0.1565
    1DPPC   GL119347   0.122  12.671   2.353 -0.0644 -0.0377  0.2052
    1DPPC   GL219348   0.331  12.372   2.464 -0.1505  0.0636 -0.1502
    1DPPC   C1A19349   0.143  12.835   2.735  0.2018  0.2486 -0.0704
    1DPPC   C2A19350  30.313  12.934   3.075 -0.1008 -0.0906 -0.2453
    1DPPC   C3A19351  30.330  13.031   3.497 -0.4973  0.2815  0.1489
    1DPPC   C4A19352  30.158  12.938   3.923  0.2006 -0.3182  0.2151
    1DPPC   C1B19353   0.329  12.371   2.865  0.1087 -0.1772  0.2885
    1DPPC   C2B19354   0.462  12.331   3.313 -0.0285  0.0802  0.1746
    1DPPC   C3B19355   0.622  12.417   3.676  0.2036 -0.0420 -0.0503
    1DPPC   C4B19356   0.588  12.565   4.032 -0.4480 -0.0646 -0.2359
    1DPPC   NC319357  12.708  24.745   2.785  0.1092 -0.0290  0.3034
    1DPPC   PO419358  12.406  24.483   2.783  0.5254 -0.1150  0.1756
    1DPPC   GL119359  12.414  24.544   3.157  0.2406  0.1514  0.0277
    1DPPC   GL219360  12.188  24.469   3.233 -0.1748 -0.1320  0.0208
    1DPPC   C1A19361  12.550  24.412   3.607  0.0007  0.1988 -0.0136
    1DPPC   C2A19362  12.344  24.214   4.022  0.0162  0.1103 -0.0540
    1DPPC   C3A19363  12.169  24.200   4.489  0.0122 -0.0844  0.0166
    1DPPC   C4A19364  12.168  24.486   4.769  0.1544  0.2090 -0.0235
    1DPPC   C1B19365  12.085  24.662   3.708 -0.1085  0.0006 -0.2078
    1DPPC   C2B19366  11.961  24.674   4.156 -0.0484 -0.2427  0.0614
    1DPPC   C3B19367  11.744  24.455   4.490  0.4285 -0.2298 -0.0491
    1DPPC   C4B19368  11.429  24.092   4.544 -0.0171 -0.3586 -0.3212
    1DPPC   NC319369   0.710  14.701   1.873 -0.1967 -0.3278  0.0770
    1DPPC   PO419370   0.567  15.103   1.926  0.0311  0.2103  0.1724
    1DPPC   GL119371   0.661  15.139   2.384 -0.0685 -0.2008 -0.0994
    1DPPC   GL219372   0.478  14.816   2.431  0.1006  0.0102  0.1432
    1DPPC   C1A19373   0.850  15.422   2.714  0.3291 -0.2740  0.0535
    1DPPC   C2A19374   0.723  15.541   3.148 -0.1756 -0.0520  0.0657
    1DPPC   C3A19375   0.716  15.717   3.594  0.4297 -0.0026  0.0979
    1DPPC   C4A19376   0.685  15.686   4.065  0.0769 -0.1435  0.3502
    1DPPC   C1B19377   0.577  15.009   2.839 -0.0861  0.2555 -0.2157
    1DPPC   C2B19378   0.595  14.978   3.279  0.0294 -0.0762  0.1699
    1DPPC   C3B19379   0.585  14.826   3.678  0.0739  0.1531 -0.4465
    1DPPC   C4B19380   0.583  14.804   4.041  0.0673  0.3803  0.0188
    1DPPC   NC319381   1.705  21.859   1.712  0.0301 -0.0183  0.1527
    1DPPC   PO419382   1.655  21.814   2.166  0.0259 -0.2675  0.0120
    1DPPC   GL119383   1.189  21.743   2.444 -0.1408 -0.0357  0.0207
    1DPPC   GL219384   1.103  21.385   2.262  0.0144 -0.0123 -0.1122
    1DPPC   C1A19385   1.129  21.613   2.850  0.1268  0.0888  0.0968
    1DPPC   C2A19386   1.204  21.317   3.088  0.0368 -0.0594 -0.0363
    1DPPC   C3A19387   1.217  21.082   3.445  0.2472  0.0416  0.3755
    1DPPC   C4A19388   1.235  20.849   3.948 -0.0248  0.0405  0.1965
    1DPPC   C1B19389   1.223  21.159   2.589 -0.1700  0.1014  0.0409
    1DPPC   C2B19390   1.086  20.749   2.865  0.1740 -0.1605 -0.0630
    1DPPC   C3B19391   0.911  20.750   3.248 -0.1350 -0.1920 -0.2706
    1DPPC   C4B19392   0.822  20.789   3.639 -0.2063 -0.0437 -0.0611
    1DPPC   NC319393   1.154  16.086   1.625  0.0315  0.1907 -0.0095
    1DPPC   PO419394   1.265  16.273   2.053 -0.2774 -0.2472  0.1186
    1DPPC   GL119395   1.437  16.325   2.450  0.2148 -0.0124 -0.2493
    1DPPC   GL219396   1.546  16.050   2.576  0.0909  0.1304 -0.1451
    1DPPC   C1A19397   1.630  16.471   2.846  0.2032 -0.0975  0.2276
    1DPPC   C2A19398   1.754  16.353   3.168  0.0640  0.3353 -0.2036
    1DPPC   C3A19399   2.032  16.309   3.508  0.2313  0.2657  0.0986
    1DPPC   C4A19400   2.113  16.272   3.830  0.2713  0.5594 -0.0300
    1DPPC   C1B19401   1.498  15.989   2.955  0.2428 -0.0823 -0.1291
    1DPPC   C2B19402   1.548  15.950   3.389  0.1368  0.0362  0.3205
    1DPPC   C3B19403   1.635  16.162   3.739 -0.0381  0.1938  0.4562
    1DPPC   C4B19404   1.713  16.325   4.164 -0.2939  0.2551 -0.2666
    1DPPC   NC319405   2.048  16.361   1.424  0.0025 -0.0328  0.0968
    1DPPC   PO419406   2.089  16.491   1.804  0.1807  0.0391 -0.0564
    1DPPC   GL119407   2.015  16.520   2.363 -0.0213 -0.0516 -0.0788
    1DPPC   GL219408   2.032  16.192   2.577 -0.0867 -0.3204  0.2613
    1DPPC   C1A19409   2.097  16.591   2.882 -0.2474  0.0595  0.4325
    1DPPC   C2A19410   2.202  16.734   3.245  0.1090  0.1035 -0.2009
    1DPPC   C3A19411   2.279  16.877   3.608 -0.0644  0.2243  0.0462
    1DPPC   C4A19412   2.252  17.080   4.001 -0.2294  0.1245 -0.1910
    1DPPC   C1B19413   2.012  16.058   2.903 -0.2361 -0.0166 -0.0781
    1DPPC   C2B19414   2.027  15.851   3.346 -0.3514 -0.0733  0.0598
    1DPPC   C3B19415   1.778  15.646   3.711 -0.0480 -0.1271 -0.1016
    1DPPC   C4B19416   1.382  15.815   4.037  0.1296 -0.2219 -0.0225
    1DPPC   NC319417  29.251  13.285   2.053  0.0368 -0.1586 -0.2265
    1DPPC   PO419418  29.635  13.476   2.049  0.0618  0.1629 -0.1989
    1DPPC   GL119419  29.732  13.606   2.338  0.1244  0.1290 -0.2525
    1DPPC   GL219420  29.868  13.925   2.352 -0.0128 -0.1583 -0.1818
    1DPPC   C1A19421  29.709  13.603   2.794  0.3354  0.0780 -0.1109
    1DPPC   C2A19422  29.624  13.692   3.328 -0.0570  0.1697  0.3254
    1DPPC   C3A19423  29.497  13.766   3.778  0.1705  0.0368 -0.0028
    1DPPC   C4A19424  29.289  13.767   4.130 -0.1022  0.1448 -0.5182
    1DPPC   C1B19425  29.822  14.101   2.714  0.1499  0.0669  0.2235
    1DPPC   C2B19426  29.790  14.246   3.118 -0.1887 -0.0434 -0.0468
    1DPPC   C3B19427  29.783  14.216   3.590  0.0233 -0.1040  0.2583
    1DPPC   C4B19428  29.778  14.164   4.068  0.0084  0.0186 -0.2116
    1DPPC   NC319429   2.987  22.145   1.684  0.1244 -0.6005 -0.1273
    1DPPC   PO419430   2.984  21.760   1.698 -0.2698  0.2014 -0.2443
    1DPPC   GL119431   3.004  21.561   2.099 -0.0640 -0.0631  0.0187
    1DPPC   GL219432   3.078  21.873   2.243  0.1401 -0.3631 -0.0075
    1DPPC   C1A19433   2.983  21.420   2.509  0.0069  0.1333 -0.0831
    1DPPC   C2A19434   3.113  21.360   2.975 -0.1401  0.1074  0.0482
    1DPPC   C3A19435   3.345  21.351   3.547  0.1270  0.1090 -0.1634
    1DPPC   C4A19436   3.679  21.470   3.817 -0.0779  0.4139  0.0580
    1DPPC   C1B19437   2.990  21.904   2.606  0.1066  0.2322  0.0455
    1DPPC   C2B19438   3.003  21.892   2.969 -0.0547  0.2846 -0.1861
    1DPPC   C3B19439   2.910  21.728   3.482  0.1280  0.0056 -0.1629
    1DPPC   C4B19440   2.829  21.268   3.641 -0.0866 -0.0940 -0.0406
    1DPPC   NC319441   7.114  12.498   2.365 -0.0244  0.0291 -0.2233
    1DPPC   PO419442   7.209  12.919   2.279 -0.2760 -0.1611 -0.0401
    1DPPC   GL119443   7.141  13.037   2.666  0.1948  0.0321 -0.1348
    1DPPC   GL219444   6.891  12.795   2.763 -0.2777  0.0886 -0.0725
    1DPPC   C1A19445   7.354  13.158   3.071 -0.0372 -0.2351 -0.1814
    1DPPC   C2A19446   7.175  13.236   3.500 -0.0887 -0.2417 -0.0082
    1DPPC   C3A19447   7.252  13.446   3.874 -0.0192 -0.0145 -0.3860
    1DPPC   C4A19448   7.244  13.512   4.495 -0.1763 -0.0008 -0.0479
    1DPPC   C1B19449   6.879  12.912   3.145 -0.1223  0.0684 -0.0256
    1DPPC   C2B19450   6.823  12.969   3.616  0.3131  0.2234 -0.1853
    1DPPC   C3B19451   6.909  12.932   4.037 -0.0177  0.0189  0.1351
    1DPPC   C4B19452   7.068  13.057   4.453  0.3289  0.1356 -0.0316
    1DPPC   NC319453   3.587  28.986   3.765  0.0142 -0.1443  0.2843
    1DPPC   PO419454   3.140  28.912   3.720  0.4336  0.1814  0.0972
    1DPPC   GL119455   3.024  29.090   4.112 -0.3349 -0.1079  0.0994
    1DPPC   GL219456   3.331  29.100   4.253 -0.0362 -0.0225  0.3230
    1DPPC   C1A19457   2.808  29.122   4.639 -0.0117 -0.0553 -0.3203
    1DPPC   C2A19458   2.523  29.169   4.998  0.1065 -0.0436 -0.1189
    1DPPC   C3A19459   2.050  29.348   5.014 -0.2658  0.2027 -0.1108
    1DPPC   C4A19460   1.718  29.442   5.324 -0.3762  0.2060 -0.1397
    1DPPC   C1B19461   3.304  29.213   4.678 -0.1010 -0.3034 -0.3808
    1DPPC   C2B19462   2.975  29.347   5.070  0.1053 -0.3382  0.1317
    1DPPC   C3B19463   2.897  29.180   5.411 -0.1836  0.2796 -0.3416
    1DPPC   C4B19464   2.734  29.442   5.667  0.0068 -0.2131 -0.1201
    1DPPC   NC319465  26.864  13.959   1.875  0.2547  0.2525  0.1362
    1DPPC   PO419466  27.199  13.632   2.001 -0.0170  0.4056 -0.0644
    1DPPC   GL119467  27.445  13.664   2.399 -0.0884 -0.3379 -0.2014
    1DPPC   GL219468  27.476  13.999   2.509  0.3410  0.1301 -0.2279
    1DPPC   C1A19469  27.461  13.596   2.830  0.1205  0.0064  0.0737
    1DPPC   C2A19470  27.501  13.829   3.247 -0.0912 -0.2443 -0.1182
    1DPPC   C3A19471  27.632  13.859   3.712  0.0733 -0.1642 -0.0063
    1DPPC   C4A19472  27.749  13.816   4.131 -0.0882  0.0052  0.2258
    1DPPC   C1B19473  27.869  13.813   2.617 -0.0359  0.0526 -0.2078
    1DPPC   C2B19474  28.216  13.780   2.907 -0.0335 -0.5539  0.2232
    1DPPC   C3B19475  28.514  13.603   3.103  0.2274  0.0043 -0.0849
    1DPPC   C4B19476  28.584  13.470   3.480 -0.1999  0.1255 -0.1197
    1DPPC   NC319477   4.498  14.171   2.414  0.1147  0.0315  0.0301
    1DPPC   PO419478   4.929  13.923   2.559 -0.0030  0.2203 -0.2193
    1DPPC   GL119479   5.125  13.982   2.903 -0.0728  0.2084  0.1794
    1DPPC   GL219480   5.474  13.932   2.877 -0.0847  0.3451 -0.0616
    1DPPC   C1A19481   5.069  13.932   3.283 -0.2858  0.2085 -0.2355
    1DPPC   C2A19482   5.040  13.933   3.630 -0.1153  0.3333  0.0876
    1DPPC   C3A19483   5.038  13.861   4.089  0.0838 -0.0566 -0.3667
    1DPPC   C4A19484   4.889  13.676   4.460  0.0747  0.0683 -0.3060
    1DPPC   C1B19485   5.551  13.990   3.294  0.1932  0.1583  0.0881
    1DPPC   C2B19486   5.552  13.954   3.590  0.0733 -0.0193 -0.3460
    1DPPC   C3B19487   5.462  14.049   3.931 -0.5029  0.1640  0.0779
    1DPPC   C4B19488   5.486  14.385   4.284  0.1980 -0.4425 -0.0343
    1DPPC   NC319489  27.523  21.224   2.285 -0.0874  0.2430  0.2166
    1DPPC   PO419490  27.414  20.876   1.946 -0.1440  0.0980 -0.1493
    1DPPC   GL119491  27.715  20.810   2.285  0.2505 -0.1579  0.1604
    1DPPC   GL219492  27.948  20.563   2.292 -0.1918  0.0935  0.1156
    1DPPC   C1A19493  27.891  20.845   2.751 -0.2624  0.0037 -0.0977
    1DPPC   C2A19494  27.706  20.861   3.143 -0.1880 -0.2309  0.0028
    1DPPC   C3A19495  27.710  20.937   3.555  0.2386 -0.0839  0.1461
    1DPPC   C4A19496  27.763  21.061   3.964 -0.1358  0.1324  0.2051
    1DPPC   C1B19497  28.080  20.337   2.606  0.1539 -0.0211  0.0252
    1DPPC   C2B19498  27.897  20.432   3.081  0.1343 -0.2834 -0.0534
    1DPPC   C3B19499  27.936  20.370   3.555  0.2030 -0.0642 -0.0810
    1DPPC   C4B19500  27.993  20.356   3.940  0.0539 -0.1212  0.1099
    1DPPC   NC319501  27.037  13.348   2.414  0.1300  0.0640  0.1252
    1DPPC   PO419502  26.649  13.031   2.325 -0.3151 -0.0520  0.3023
    1DPPC   GL119503  26.827  13.000   2.793  0.3268 -0.0765 -0.0659
    1DPPC   GL219504  26.923  12.719   2.797  0.1508 -0.0204  0.0212
    1DPPC   C1A19505  26.898  13.120   3.186 -0.0639  0.1556 -0.2386
    1DPPC   C2A19506  26.943  13.165   3.603  0.1229 -0.0088 -0.1229
    1DPPC   C3A19507  26.941  13.326   4.035  0.0385  0.1919  0.0264
    1DPPC   C4A19508  26.771  13.660   4.273 -0.0051  0.1838 -0.2310
    1DPPC   C1B19509  26.765  12.597   3.156 -0.3331  0.4012  0.1087
    1DPPC   C2B19510  26.757  12.658   3.586  0.0380 -0.0105  0.2820
    1DPPC   C3B19511  26.580  12.532   3.957  0.1987  0.3585 -0.5220
    1DPPC   C4B19512  26.623  12.656   4.320 -0.0351 -0.1235 -0.0495
    1DPPC   NC319513  29.461  18.791   1.982 -0.0768  0.1462 -0.1763
    1DPPC   PO419514  29.458  19.245   2.009  0.2851 -0.1718  0.2926
    1DPPC   GL119515  29.738  19.422   2.279  0.0069 -0.0787 -0.1298
    1DPPC   GL219516  30.034  19.311   2.316  0.0714  0.0881  0.0122
    1DPPC   C1A19517  29.723  19.451   2.656 -0.0490  0.1286 -0.1785
    1DPPC   C2A19518  29.772  19.557   3.038  0.1289  0.3414  0.2900
    1DPPC   C3A19519  29.746  19.558   3.465  0.0711  0.2378 -0.0352
    1DPPC   C4A19520  29.941  19.713   3.796 -0.2015  0.2214 -0.1680
    1DPPC   C1B19521  30.118  19.235   2.830  0.0488  0.1664 -0.0119
    1DPPC   C2B19522  30.207  19.253   3.236 -0.0979  0.1558 -0.0307
    1DPPC   C3B19523  30.234  19.373   3.623  0.1119 -0.0820 -0.0191
    1DPPC   C4B19524   0.177  19.584   3.884 -0.0708  0.3423  0.0114
    1DPPC   NC319525  23.960  15.411   2.229 -0.1829  0.0408  0.4864
    1DPPC   PO419526  23.950  15.844   2.190  0.0868 -0.2187 -0.2179
    1DPPC   GL119527  24.183  15.875   2.543 -0.1746 -0.2357  0.1619
    1DPPC   GL219528  24.071  16.128   2.608 -0.1324  0.0264 -0.0963
    1DPPC   C1A19529  24.398  15.649   2.986 -0.1411  0.2398  0.1666
    1DPPC   C2A19530  24.582  15.639   3.401  0.3099 -0.0817 -0.0758
    1DPPC   C3A19531  24.922  15.785   3.680 -0.2440 -0.0279  0.0824
    1DPPC   C4A19532  24.870  15.759   4.088 -0.2525  0.3673  0.0112
    1DPPC   C1B19533  24.096  16.091   3.017  0.0100  0.4935 -0.3483
    1DPPC   C2B19534  24.181  15.963   3.393 -0.2981  0.1006 -0.0169
    1DPPC   C3B19535  24.143  15.863   3.886  0.0474  0.2618 -0.1535
    1DPPC   C4B19536  24.383  15.737   4.220 -0.2293  0.1007  0.1351
    1DPPC   NC319537  30.006  17.002   1.885 -0.0568  0.0457 -0.0688
    1DPPC   PO419538  29.952  16.575   2.074 -0.0247 -0.2918 -0.0737
    1DPPC   GL119539  30.007  16.665   2.472  0.1679 -0.3569  0.1033
    1DPPC   GL219540  30.282  16.864   2.550 -0.1463  0.0595  0.0369
    1DPPC   C1A19541  29.805  16.905   2.813  0.3204 -0.0561 -0.0296
    1DPPC   C2A19542  29.689  16.949   3.218 -0.1195 -0.1746  0.2657
    1DPPC   C3A19543  29.878  17.191   3.595  0.2103 -0.2705  0.0329
    1DPPC   C4A19544  29.971  17.183   4.134 -0.1373  0.0154  0.0444
    1DPPC   C1B19545  30.230  16.806   2.975  0.1701  0.0107 -0.1039
    1DPPC   C2B19546  30.147  16.804   3.474 -0.1781 -0.1671  0.0959
    1DPPC   C3B19547  30.239  16.830   3.876  0.1427 -0.0517  0.0318
    1DPPC   C4B19548   0.078  17.020   4.221  0.2583 -0.0091 -0.2161
    1DPPC   NC319549  26.381  14.730   1.936  0.4100  0.2654 -0.0457
    1DPPC   PO419550  25.873  14.666   2.122 -0.4130  0.2729 -0.1283
    1DPPC   GL119551  25.900  14.722   2.579  0.0090  0.1905 -0.0507
    1DPPC   GL219552  25.941  15.025   2.773  0.2966 -0.0510  0.1349
    1DPPC   C1A19553  25.925  14.646   3.037  0.0011  0.1328 -0.0421
    1DPPC   C2A19554  25.795  14.649   3.424 -0.2525 -0.0935 -0.0335
    1DPPC   C3A19555  25.680  14.694   3.789 -0.1848  0.0341  0.0330
    1DPPC   C4A19556  25.594  14.725   4.255  0.0644 -0.0803  0.1639
    1DPPC   C1B19557  25.849  15.220   3.161 -0.0715 -0.0653 -0.0747
    1DPPC   C2B19558  25.996  15.496   3.405 -0.0387  0.0299 -0.1430
    1DPPC   C3B19559  25.812  15.862   3.522 -0.0914  0.0376 -0.0321
    1DPPC   C4B19560  25.765  16.121   3.878  0.0929  0.0723 -0.1811
    1DPPC   NC319561   8.922  22.958   2.109 -0.1082  0.2565  0.3423
    1DPPC   PO419562   8.780  23.296   2.282  0.0837 -0.0540 -0.1607
    1DPPC   GL119563   8.880  23.082   2.609 -0.3618  0.0667  0.1210
    1DPPC   GL219564   8.723  22.841   2.636 -0.0233 -0.1970 -0.2517
    1DPPC   C1A19565   8.835  23.232   3.042 -0.0676  0.0533 -0.2409
    1DPPC   C2A19566   8.831  23.377   3.430  0.0587  0.0528  0.0352
    1DPPC   C3A19567   9.087  23.221   3.742  0.2917  0.1010 -0.0091
    1DPPC   C4A19568   9.293  23.508   4.089 -0.2978  0.0515 -0.0394
    1DPPC   C1B19569   8.554  22.821   3.008 -0.0660 -0.0628 -0.0205
    1DPPC   C2B19570   8.504  22.717   3.400  0.0738  0.0546  0.1071
    1DPPC   C3B19571   8.235  22.761   3.632  0.0649 -0.0306  0.1339
    1DPPC   C4B19572   8.274  22.792   4.094  0.2136  0.1005  0.0199
    1DPPC   NC319573  26.200  19.014   1.563  0.0462 -0.2523  0.0549
    1DPPC   PO419574  25.900  18.748   1.788 -0.0095  0.2423  0.0059
    1DPPC   GL119575  25.606  18.841   2.074 -0.0458 -0.0409  0.0553
    1DPPC   GL219576  25.357  19.069   2.058  0.0799 -0.0678  0.0586
    1DPPC   C1A19577  25.650  19.006   2.466 -0.0923 -0.2039 -0.1302
    1DPPC   C2A19578  25.821  19.176   2.787 -0.0598 -0.0282 -0.1277
    1DPPC   C3A19579  25.625  19.048   3.189  0.0485  0.0441 -0.2901
    1DPPC   C4A19580  25.433  19.085   3.604 -0.0162 -0.0661  0.0720
    1DPPC   C1B19581  25.123  19.079   2.402 -0.2220 -0.0728  0.0519
    1DPPC   C2B19582  25.162  19.004   2.762  0.0382  0.3128  0.1100
    1DPPC   C3B19583  25.131  18.740   3.203 -0.2536  0.0087 -0.1323
    1DPPC   C4B19584  25.108  18.698   3.555  0.0104 -0.1505  0.0871
    1DPPC   NC319585   3.625  14.765   1.833  0.0392  0.2347  0.0387
    1DPPC   PO419586   3.643  15.194   1.929  0.0662 -0.0091 -0.0839
    1DPPC   GL119587   3.647  15.454   2.341 -0.0813 -0.0197  0.0251
    1DPPC   GL219588   3.386  15.678   2.469 -0.0117 -0.1463  0.2081
    1DPPC   C1A19589   3.563  15.281   2.711 -0.0209  0.2664 -0.1804
    1DPPC   C2A19590   3.498  15.253   3.172 -0.0081 -0.2189  0.0952
    1DPPC   C3A19591   3.340  15.276   3.573  0.3003 -0.0232  0.1669
    1DPPC   C4A19592   3.142  15.151   3.926 -0.1473 -0.1832  0.1570
    1DPPC   C1B19593   3.454  15.738   2.902  0.0320 -0.2811 -0.2168
    1DPPC   C2B19594   3.493  15.747   3.386  0.0204 -0.4182 -0.0989
    1DPPC   C3B19595   3.301  15.719   3.839  0.2116  0.1214  0.1142
    1DPPC   C4B19596   3.213  15.617   4.351  0.0207 -0.0192 -0.0522
    1DPPC   NC319597   0.318  22.000   2.165  0.1490 -0.2092 -0.1412
    1DPPC   PO419598   0.599  22.238   2.376  0.0476  0.1217  0.1467
    1DPPC   GL119599   0.956  22.236   2.645  0.0548 -0.3823  0.0953
    1DPPC   GL219600   0.806  22.525   2.816 -0.1180  0.4104  0.2140
    1DPPC   C1A19601   1.024  22.177   3.082  0.0544  0.5684  0.1266
    1DPPC   C2A19602   1.057  22.240   3.527  0.0336  0.0527 -0.0875
    1DPPC   C3A19603   1.085  22.300   3.896 -0.0192  0.1000  0.0998
    1DPPC   C4A19604   1.094  22.482   4.309  0.1864  0.0301 -0.0984
    1DPPC   C1B19605   1.072  22.656   3.173  0.2786 -0.1822 -0.2274
    1DPPC   C2B19606   0.939  22.718   3.505  0.2035  0.0683 -0.0748
    1DPPC   C3B19607   1.076  22.824   3.803 -0.0487 -0.1771 -0.1028
    1DPPC   C4B19608   1.089  23.024   4.157 -0.0964 -0.2327 -0.6090
    1DPPC   NC319609  29.966  24.102   2.634  0.0402 -0.0335 -0.1263
    1DPPC   PO419610  30.221  23.784   2.621  0.2128  0.1717  0.1682
    1DPPC   GL119611  30.149  23.526   2.934  0.0542  0.2452  0.0438
    1DPPC   GL219612  29.869  23.601   3.021 -0.0560  0.0524  0.0500
    1DPPC   C1A19613   0.033  23.593   3.323 -0.0121 -0.0755  0.1786
    1DPPC   C2A19614   0.051  23.724   3.718 -0.2706 -0.0550  0.0008
    1DPPC   C3A19615  30.289  23.732   4.129 -0.1423 -0.1804  0.3282
    1DPPC   C4A19616  30.284  23.875   4.645  0.0734  0.0552 -0.0764
    1DPPC   C1B19617  29.820  23.883   3.349  0.2471 -0.2106  0.1336
    1DPPC   C2B19618  29.788  23.749   3.728  0.1083 -0.1511 -0.2101
    1DPPC   C3B19619  29.844  23.791   4.045  0.1256  0.1477  0.1008
    1DPPC   C4B19620  29.819  23.717   4.490  0.0329  0.0307  0.0406
    1DPPC   NC319621  26.196  15.751   2.093  0.1700  0.1471 -0.2542
    1DPPC   PO419622  25.881  15.563   2.141  0.0817  0.0874 -0.0301
    1DPPC   GL119623  25.943  15.487   2.533 -0.0168  0.0227 -0.0807
    1DPPC   GL219624  26.215  15.509   2.607  0.1827 -0.0595  0.2994
    1DPPC   C1A19625  25.756  15.715   2.871  0.2157 -0.0908  0.0662
    1DPPC   C2A19626  25.504  16.071   3.109  0.1169 -0.0550  0.1557
    1DPPC   C3A19627  25.104  15.909   3.224 -0.3264  0.2916 -0.3349
    1DPPC   C4A19628  24.919  15.727   2.818 -0.2696 -0.1111  0.1595
    1DPPC   C1B19629  26.328  15.320   2.943 -0.0358  0.1530 -0.1672
    1DPPC   C2B19630  26.460  15.366   3.309 -0.2462  0.0414 -0.1560
    1DPPC   C3B19631  26.435  15.500   3.802 -0.0500  0.1129 -0.0630
    1DPPC   C4B19632  26.339  15.436   4.273 -0.1464  0.1115 -0.2307
    1DPPC   NC319633   2.200  11.475   1.830 -0.0549  0.0264 -0.3312
    1DPPC   PO419634   2.306  11.790   2.261 -0.0956 -0.1309  0.4136
    1DPPC   GL119635   2.242  11.809   2.729  0.1548  0.1893 -0.0843
    1DPPC   GL219636   2.084  12.013   2.866 -0.0587 -0.0425  0.4223
    1DPPC   C1A19637   2.306  11.674   3.115  0.0790 -0.2438  0.1576
    1DPPC   C2A19638   2.281  11.695   3.562  0.0654  0.4429  0.1345
    1DPPC   C3A19639   2.309  11.670   4.019  0.1452 -0.1498  0.2342
    1DPPC   C4A19640   2.243  11.368   4.373  0.0803  0.2935 -0.1427
    1DPPC   C1B19641   2.184  12.084   3.302 -0.0048 -0.2249  0.0471
    1DPPC   C2B19642   2.264  12.135   3.775 -0.0404 -0.2288  0.1145
    1DPPC   C3B19643   2.164  12.114   4.211  0.2457  0.2489  0.4245
    1DPPC   C4B19644   2.266  12.290   4.534  0.0185  0.1391 -0.2025
    1DPPC   NC319645  30.064  13.222   2.009  0.1890 -0.0761  0.1352
    1DPPC   PO419646  30.207  13.493   2.173 -0.0345  0.0388 -0.0126
    1DPPC   GL119647  30.195  13.639   2.575  0.1962  0.2843 -0.4630
    1DPPC   GL219648  30.329  13.867   2.569  0.0934  0.1381  0.1053
    1DPPC   C1A19649  30.122  13.831   3.059 -0.1296 -0.0683 -0.0424
    1DPPC   C2A19650  30.113  13.815   3.477  0.1215 -0.1971 -0.1729
    1DPPC   C3A19651  30.080  13.855   3.814 -0.2087 -0.2778 -0.1587
    1DPPC   C4A19652  30.141  13.805   4.195  0.1223 -0.1378 -0.1594
    1DPPC   C1B19653   0.260  13.917   2.929 -0.1382  0.2824  0.0940
    1DPPC   C2B19654   0.227  13.993   3.366  0.1219 -0.0667  0.0865
    1DPPC   C3B19655   0.187  13.900   3.776  0.1432 -0.0904  0.0084
    1DPPC   C4B19656   0.329  13.795   4.192  0.0226 -0.1209 -0.0087
    1DPPC   NC319657   3.693  23.923   2.421 -0.1307 -0.3204 -0.1691
    1DPPC   PO419658   3.320  23.713   2.409 -0.2554 -0.1945  0.2667
    1DPPC   GL119659   3.261  23.635   2.793 -0.0705 -0.0548 -0.0758
    1DPPC   GL219660   3.528  23.453   2.994 -0.2352  0.0168 -0.2553
    1DPPC   C1A19661   3.108  23.483   3.204 -0.2048 -0.0120 -0.0826
    1DPPC   C2A19662   3.400  23.390   3.482  0.1233  0.0506  0.0164
    1DPPC   C3A19663   3.331  23.376   3.961 -0.2365 -0.0212  0.0196
    1DPPC   C4A19664   3.480  23.419   4.456  0.0021 -0.0494 -0.2672
    1DPPC   C1B19665   3.639  23.007   2.950 -0.0469  0.5324 -0.1840
    1DPPC   C2B19666   3.943  22.726   3.042  0.0268 -0.2385  0.2284
    1DPPC   C3B19667   4.407  22.527   3.055 -0.2926  0.4573  0.0133
    1DPPC   C4B19668   4.801  22.599   2.886 -0.2466 -0.0872  0.0683
    1DPPC   NC319669  29.100  22.267   2.605  0.2906  0.0951 -0.2717
    1DPPC   PO419670  29.471  22.406   2.673  0.5138 -0.0244  0.1366
    1DPPC   GL119671  29.246  22.525   3.013 -0.2364  0.2769  0.0603
    1DPPC   GL219672  29.268  22.931   3.000  0.1357 -0.0587 -0.0403
    1DPPC   C1A19673  29.337  22.415   3.437 -0.1158 -0.0932 -0.2855
    1DPPC   C2A19674  29.075  22.116   3.747 -0.2954  0.2226 -0.0191
    1DPPC   C3A19675  28.803  22.097   4.025  0.0395 -0.2269 -0.3867
    1DPPC   C4A19676  28.425  22.222   4.343  0.2195 -0.0764 -0.0630
    1DPPC   C1B19677  29.322  22.932   3.362  0.1260 -0.0652 -0.1655
    1DPPC   C2B19678  29.315  22.856   3.766 -0.1099  0.2186  0.1018
    1DPPC   C3B19679  29.333  22.450   3.951  0.1834  0.1130  0.3017
    1DPPC   C4B19680  29.374  22.051   4.125  0.2085 -0.0563 -0.2181
    1DPPC   NC319681  22.730  18.671   1.853  0.3278  0.1371  0.1388
    1DPPC   PO419682  23.102  18.596   2.025  0.0454 -0.2102  0.1880
    1DPPC   GL119683  23.203  18.496   2.462  0.1695 -0.2593 -0.3822
    1DPPC   GL219684  23.167  18.601   2.719 -0.0007 -0.0632 -0.1826
    1DPPC   C1A19685  23.327  18.164   2.773 -0.0036 -0.0984  0.2203
    1DPPC   C2A19686  23.554  17.895   3.078  0.1590  0.1398  0.0003
    1DPPC   C3A19687  23.926  17.877   3.301 -0.5141 -0.1328  0.1831
    1DPPC   C4A19688  23.891  17.650   3.716 -0.0475  0.0643 -0.0603
    1DPPC   C1B19689  23.201  18.750   3.089  0.0470 -0.0548 -0.0988
    1DPPC   C2B19690  23.061  19.170   3.247 -0.0614 -0.1532  0.1532
    1DPPC   C3B19691  22.695  19.295   3.400 -0.0244  0.0394  0.1319
    1DPPC   C4B19692  22.387  19.319   3.241  0.0967 -0.2696  0.2105
    1DPPC   NC319693   6.715  14.888   2.081  0.0793  0.1513  0.2231
    1DPPC   PO419694   6.292  14.848   2.156  0.2843 -0.1820 -0.2432
    1DPPC   GL119695   6.367  14.731   2.543 -0.0453 -0.0066 -0.1840
    1DPPC   GL219696   6.616  14.551   2.496  0.0435  0.0639 -0.2108
    1DPPC   C1A19697   6.235  14.791   2.931  0.2214 -0.3655  0.0328
    1DPPC   C2A19698   6.163  14.775   3.276 -0.2982  0.3257 -0.0661
    1DPPC   C3A19699   6.124  14.825   3.756  0.0934 -0.2584 -0.1886
    1DPPC   C4A19700   6.159  14.898   4.204  0.0275  0.0093 -0.0884
    1DPPC   C1B19701   6.740  14.647   2.890  0.1184  0.0464 -0.1031
    1DPPC   C2B19702   6.689  14.818   3.278  0.3620  0.1836  0.0370
    1DPPC   C3B19703   6.593  14.814   3.737  0.0743 -0.3087  0.0616
    1DPPC   C4B19704   6.499  14.567   4.072  0.2049  0.0886 -0.1096
    1DPPC   NC319705   2.702  12.040   2.513  0.1677 -0.1626 -0.2837
    1DPPC   PO419706   3.108  11.950   2.542 -0.1974  0.0417 -0.2993
    1DPPC   GL119707   3.472  11.919   2.870  0.0449  0.1260  0.1421
    1DPPC   GL219708   3.462  11.716   3.143 -0.0143  0.0564 -0.1071
    1DPPC   C1A19709   3.740  12.219   3.161 -0.2807  0.2473  0.0063
    1DPPC   C2A19710   3.725  12.309   3.541 -0.0340 -0.1897  0.2063
    1DPPC   C3A19711   3.723  12.505   3.865 -0.2134  0.2149  0.0772
    1DPPC   C4A19712   3.685  12.753   4.298 -0.0016  0.0967 -0.1582
    1DPPC   C1B19713   3.499  11.848   3.591  0.2056 -0.2000 -0.4234
    1DPPC   C2B19714   3.481  12.062   3.924 -0.0633  0.3587 -0.1483
    1DPPC   C3B19715   3.564  12.201   4.333  0.0782  0.1948 -0.0704
    1DPPC   C4B19716   3.514  11.991   4.699 -0.0672  0.1541 -0.1016
    1DPPC   NC319717  28.313  20.067   1.632  0.0631  0.1117  0.1786
    1DPPC   PO419718  27.879  20.252   1.677 -0.0012 -0.3298  0.0890
    1DPPC   GL119719  27.649  20.138   2.050 -0.0242 -0.1059 -0.0141
    1DPPC   GL219720  27.440  20.260   2.183  0.0589 -0.0684 -0.3224
    1DPPC   C1A19721  27.764  19.996   2.448  0.0494  0.2173 -0.1738
    1DPPC   C2A19722  27.708  20.045   2.883  0.1637 -0.0101 -0.2302
    1DPPC   C3A19723  27.699  20.007   3.250 -0.0142 -0.3040 -0.0649
    1DPPC   C4A19724  27.623  19.909   3.542  0.0304 -0.1447 -0.3192
    1DPPC   C1B19725  27.552  20.481   2.597 -0.0829  0.0566 -0.1143
    1DPPC   C2B19726  27.388  20.480   3.087  0.0380  0.0109  0.0831
    1DPPC   C3B19727  27.420  20.438   3.469 -0.1536 -0.1125  0.1399
    1DPPC   C4B19728  27.215  20.292   3.771 -0.2879 -0.0857  0.1144
    1DPPC   NC319729   5.271  15.113   2.191 -0.0306 -0.2291  0.0110
    1DPPC   PO419730   5.004  14.803   2.072  0.2130  0.1951 -0.1283
    1DPPC   GL119731   4.969  14.840   2.484  0.1357  0.0820  0.1409
    1DPPC   GL219732   4.790  15.062   2.543  0.0229 -0.3630 -0.1705
    1DPPC   C1A19733   4.972  14.822   2.928 -0.2544 -0.1392 -0.0680
    1DPPC   C2A19734   4.804  14.854   3.332  0.0860  0.2128 -0.1212
    1DPPC   C3A19735   4.770  14.784   3.794 -0.2030 -0.0366 -0.0417
    1DPPC   C4A19736   4.722  15.063   4.209  0.0398  0.3393  0.0658
    1DPPC   C1B19737   4.890  15.394   2.904 -0.0527 -0.1380  0.0929
    1DPPC   C2B19738   4.889  15.421   3.345  0.3437 -0.1556  0.2160
    1DPPC   C3B19739   4.828  15.349   3.757  0.0331  0.0996  0.0855
    1DPPC   C4B19740   5.170  15.122   4.029  0.1178  0.2195 -0.1219
    1DPPC   NC319741   6.183  15.609   1.640  0.0553  0.0513  0.0433
    1DPPC   PO419742   5.783  15.691   1.907  0.0766 -0.1536  0.0011
    1DPPC   GL119743   5.854  15.936   2.380 -0.0052  0.2062  0.1626
    1DPPC   GL219744   5.917  15.781   2.624 -0.0243 -0.0246  0.0106
    1DPPC   C1A19745   5.728  16.367   2.512 -0.0021 -0.3813 -0.1238
    1DPPC   C2A19746   5.598  16.626   2.787 -0.0012 -0.2132  0.1399
    1DPPC   C3A19747   5.687  16.823   3.181 -0.0848  0.0641  0.2033
    1DPPC   C4A19748   5.556  16.796   3.618 -0.0828 -0.1776  0.1091
    1DPPC   C1B19749   5.901  15.813   2.937 -0.3691 -0.3850  0.0156
    1DPPC   C2B19750   5.759  15.932   3.331 -0.3403 -0.0126  0.0404
    1DPPC   C3B19751   5.739  15.808   3.724  0.2198  0.1922  0.0460
    1DPPC   C4B19752   5.609  16.029   4.095 -0.0711  0.1067  0.1114
    1DPPC   NC319753   2.639  21.997   2.028  0.1276 -0.1638 -0.1264
    1DPPC   PO419754   2.510  21.567   1.925  0.3185 -0.1522  0.3662
    1DPPC   GL119755   2.386  21.301   2.276 -0.2821  0.0458  0.1215
    1DPPC   GL219756   2.062  21.182   2.289  0.1548 -0.0430 -0.1067
    1DPPC   C1A19757   2.631  21.057   2.598 -0.0026  0.0538 -0.1679
    1DPPC   C2A19758   2.523  20.960   3.014 -0.0750 -0.0180  0.1597
    1DPPC   C3A19759   2.542  20.996   3.347  0.3196  0.1686 -0.1746
    1DPPC   C4A19760   2.635  20.715   3.648  0.1211  0.0497 -0.0764
    1DPPC   C1B19761   2.148  21.059   2.642  0.0675 -0.0314 -0.2990
    1DPPC   C2B19762   2.043  21.111   3.027 -0.4502  0.0207 -0.0161
    1DPPC   C3B19763   2.070  21.204   3.509 -0.2824 -0.1843 -0.2004
    1DPPC   C4B19764   2.387  21.098   3.877 -0.1033  0.1500  0.1708
    1DPPC   NC319765   6.915  15.449   1.975  0.2380  0.1957 -0.1580
    1DPPC   PO419766   6.575  15.660   1.946  0.1049  0.0843  0.2000
    1DPPC   GL119767   6.444  15.761   2.384 -0.1184 -0.1016  0.1237
    1DPPC   GL219768   6.648  15.978   2.506  0.1377  0.0063 -0.1939
    1DPPC   C1A19769   6.364  15.674   2.815  0.1038 -0.3459  0.0758
    1DPPC   C2A19770   6.225  15.796   3.243  0.1548 -0.1156 -0.1798
    1DPPC   C3A19771   6.172  16.024   3.608  0.0025 -0.0988 -0.2895
    1DPPC   C4A19772   6.118  15.766   4.010 -0.0549  0.2552  0.1022
    1DPPC   C1B19773   6.831  16.190   2.869  0.1031 -0.0661 -0.1586
    1DPPC   C2B19774   6.683  16.150   3.212 -0.1180  0.1475 -0.2225
    1DPPC   C3B19775   6.613  16.231   3.547  0.1011 -0.2199  0.1819
    1DPPC   C4B19776   6.280  16.495   3.739 -0.0545  0.0171 -0.2193
    1DPPC   NC319777  13.934  23.567   2.565 -0.0555 -0.2683 -0.2893
    1DPPC   PO419778  13.464  23.708   2.778  0.0748  0.0760  0.2473
    1DPPC   GL119779  13.645  23.659   3.159  0.1753 -0.0497  0.0414
    1DPPC   GL219780  13.913  23.874   3.125 -0.2487 -0.0483  0.0183
    1DPPC   C1A19781  13.442  23.625   3.603  0.0186  0.0006 -0.1911
    1DPPC   C2A19782  13.148  23.563   4.007  0.1173 -0.1151  0.1023
    1DPPC   C3A19783  12.934  23.613   4.344 -0.6315 -0.2531  0.0907
    1DPPC   C4A19784  12.632  23.358   4.554  0.1115  0.3578  0.3792
    1DPPC   C1B19785  13.911  23.986   3.541  0.3949  0.2563 -0.1783
    1DPPC   C2B19786  14.170  23.810   3.841 -0.1943  0.1444  0.0273
    1DPPC   C3B19787  14.402  23.471   4.069  0.2417 -0.4216 -0.0928
    1DPPC   C4B19788  14.884  23.474   4.328  0.0862 -0.1129  0.3506
    1DPPC   NC319789   5.918  14.533   2.061  0.0283 -0.1376 -0.1309
    1DPPC   PO419790   5.812  14.058   2.139  0.3795  0.3867  0.1812
    1DPPC   GL119791   5.850  14.073   2.594  0.0766 -0.1650  0.1697
    1DPPC   GL219792   6.006  13.839   2.785  0.0472  0.1664  0.4265
    1DPPC   C1A19793   5.814  14.301   2.936  0.2119 -0.1150  0.0581
    1DPPC   C2A19794   5.834  14.416   3.404 -0.1596  0.1702 -0.2386
    1DPPC   C3A19795   5.832  14.392   3.823  0.0535  0.2462  0.1519
    1DPPC   C4A19796   6.041  14.402   4.152 -0.0722  0.1496  0.2218
    1DPPC   C1B19797   6.056  13.912   3.176  0.0784  0.2221 -0.2885
    1DPPC   C2B19798   5.997  13.997   3.640  0.0699 -0.1565 -0.0937
    1DPPC   C3B19799   5.894  13.931   4.060 -0.2618  0.1645  0.0385
    1DPPC   C4B19800   5.843  13.991   4.511  0.0088 -0.3246  0.1155
    1DPPC   NC319801  28.836  17.347   2.088  0.0888 -0.1187 -0.0764
    1DPPC   PO419802  29.173  17.655   1.901 -0.1767  0.5162  0.0761
    1DPPC   GL119803  29.237  17.541   2.264 -0.2291  0.0694  0.1807
    1DPPC   GL219804  29.410  17.216   2.410  0.0668 -0.2094 -0.2261
    1DPPC   C1A19805  29.065  17.591   2.604 -0.2544 -0.0170 -0.2781
    1DPPC   C2A19806  29.059  17.560   3.041 -0.0264  0.2585  0.1594
    1DPPC   C3A19807  29.006  17.558   3.405 -0.1243 -0.0409 -0.2460
    1DPPC   C4A19808  29.040  17.295   3.752 -0.0953  0.0506 -0.0638
    1DPPC   C1B19809  29.588  17.369   2.885  0.0360 -0.2792  0.1594
    1DPPC   C2B19810  29.526  17.483   3.342  0.1298  0.2639  0.0990
    1DPPC   C3B19811  29.460  17.562   3.815 -0.2132  0.0622 -0.1419
    1DPPC   C4B19812  29.479  17.800   4.187  0.0027  0.1116 -0.0193
    1DPPC   NC319813  27.022  18.581   1.356 -0.0143 -0.0030 -0.0803
    1DPPC   PO419814  26.596  18.692   1.572 -0.1902 -0.1728 -0.3169
    1DPPC   GL119815  26.935  18.396   1.835 -0.1825  0.1694  0.0465
    1DPPC   GL219816  26.791  18.235   2.086 -0.1120 -0.2045  0.0860
    1DPPC   C1A19817  26.923  18.713   2.207  0.2108  0.2079 -0.3593
    1DPPC   C2A19818  26.612  19.063   2.508  0.4302  0.1481  0.2605
    1DPPC   C3A19819  26.377  19.294   2.764  0.2781 -0.1884  0.3524
    1DPPC   C4A19820  26.566  19.439   3.063  0.0931  0.2735  0.0602
    1DPPC   C1B19821  26.907  18.030   2.490 -0.2082  0.1983  0.1309
    1DPPC   C2B19822  26.804  18.000   3.024  0.1575 -0.0349  0.0765
    1DPPC   C3B19823  26.742  17.976   3.512 -0.0071  0.1445  0.0915
    1DPPC   C4B19824  26.778  17.845   3.873  0.0170 -0.1665  0.0263
    1DPPC   NC319825  26.379  16.749   1.647  0.1200 -0.3394 -0.2804
    1DPPC   PO419826  26.507  16.348   1.802 -0.2006  0.2920  0.1967
    1DPPC   GL119827  26.103  16.334   2.091 -0.2778 -0.0116  0.0437
    1DPPC   GL219828  26.153  16.170   2.365  0.0094  0.1104 -0.2280
    1DPPC   C1A19829  26.060  16.659   2.483 -0.0854 -0.1450  0.2387
    1DPPC   C2A19830  26.114  16.759   2.955  0.0352  0.0061 -0.0790
    1DPPC   C3A19831  25.963  16.882   3.426  0.1600  0.1738  0.4658
    1DPPC   C4A19832  26.008  16.812   3.791 -0.2272 -0.0145  0.4546
    1DPPC   C1B19833  26.154  15.984   2.702 -0.1096  0.2524 -0.1631
    1DPPC   C2B19834  26.161  15.831   3.087  0.0495  0.0768 -0.1446
    1DPPC   C3B19835  26.268  15.864   3.512 -0.1755 -0.2708 -0.0692
    1DPPC   C4B19836  26.599  16.003   3.753  0.1476  0.0696  0.0169
    1DPPC   NC319837   8.680  14.595   2.505 -0.0476 -0.3151  0.1255
    1DPPC   PO419838   8.848  14.942   2.497 -0.0481  0.2320  0.0082
    1DPPC   GL119839   8.946  14.961   2.959 -0.0829 -0.0313  0.2114
    1DPPC   GL219840   8.992  14.660   2.946  0.3874  0.1958 -0.0789
    1DPPC   C1A19841   8.863  14.955   3.357 -0.3021 -0.3467  0.1097
    1DPPC   C2A19842   8.913  15.075   3.722 -0.0723 -0.4058  0.1502
    1DPPC   C3A19843   8.738  15.217   4.102 -0.2921 -0.0479 -0.0522
    1DPPC   C4A19844   8.499  15.119   4.456 -0.0336 -0.1188  0.3183
    1DPPC   C1B19845   8.727  14.399   3.169 -0.0551  0.1621 -0.0344
    1DPPC   C2B19846   8.460  14.579   3.385  0.0247  0.1031 -0.1396
    1DPPC   C3B19847   8.487  14.844   3.753 -0.1364 -0.1909  0.1055
    1DPPC   C4B19848   8.353  14.904   4.045 -0.0231 -0.0924  0.1101
    1DPPC   NC319849  29.673  20.684   2.011  0.2599 -0.0308 -0.1463
    1DPPC   PO419850  29.263  20.414   2.009  0.1006  0.0860  0.0336
    1DPPC   GL119851  29.306  20.671   2.376 -0.1658 -0.3153 -0.1870
    1DPPC   GL219852  29.478  20.502   2.458 -0.2329 -0.3005  0.0011
    1DPPC   C1A19853  29.231  20.970   2.630  0.2401  0.1184  0.1439
    1DPPC   C2A19854  29.162  21.252   2.973 -0.1554 -0.1746 -0.2030
    1DPPC   C3A19855  29.236  21.251   3.432 -0.0211 -0.0318  0.3905
    1DPPC   C4A19856  29.235  21.181   3.894 -0.2080 -0.0449 -0.1827
    1DPPC   C1B19857  29.301  20.410   2.816 -0.1884  0.1310 -0.1577
    1DPPC   C2B19858  29.309  20.367   3.246 -0.0881 -0.0729 -0.2193
    1DPPC   C3B19859  29.251  20.267   3.563 -0.0662 -0.0545 -0.0571
    1DPPC   C4B19860  29.063  20.183   3.844  0.1487 -0.1925  0.0093
    1DPPC   NC319861   4.059  26.061   3.295 -0.1548 -0.1256 -0.3359
    1DPPC   PO419862   3.905  25.608   3.206  0.0731 -0.0568  0.0492
    1DPPC   GL119863   3.579  25.653   3.468  0.1583  0.4239 -0.0335
    1DPPC   GL219864   3.597  25.958   3.520 -0.2791  0.0269 -0.0560
    1DPPC   C1A19865   3.484  25.453   3.874 -0.1907 -0.1622  0.0507
    1DPPC   C2A19866   3.398  25.421   4.225  0.0937  0.0288 -0.0672
    1DPPC   C3A19867   3.126  25.127   4.298 -0.0979  0.1358 -0.1804
    1DPPC   C4A19868   2.768  25.212   4.472  0.1668  0.1581  0.0482
    1DPPC   C1B19869   3.741  25.895   3.914 -0.1602  0.0809 -0.3601
    1DPPC   C2B19870   3.726  25.791   4.373 -0.0160  0.0242 -0.0279
    1DPPC   C3B19871   3.900  25.546   4.652  0.2081  0.2015  0.0189
    1DPPC   C4B19872   4.063  25.154   4.798 -0.0180  0.2987 -0.0785
    1DPPC   NC319873   7.979  22.559   2.349 -0.1186 -0.2171 -0.2973
    1DPPC   PO419874   7.737  22.881   2.392 -0.2893 -0.1149 -0.1341
    1DPPC   GL119875   7.599  22.743   2.730 -0.3105 -0.0071  0.0267
    1DPPC   GL219876   7.895  22.505   2.873 -0.0381  0.0162 -0.0488
    1DPPC   C1A19877   7.548  22.718   3.168  0.2145 -0.1934 -0.2042
    1DPPC   C2A19878   7.795  22.437   3.479  0.2172  0.1267  0.0075
    1DPPC   C3A19879   7.952  22.470   3.913 -0.2523  0.0111  0.1091
    1DPPC   C4A19880   7.865  22.401   4.369  0.1497 -0.1622 -0.2057
    1DPPC   C1B19881   8.199  22.339   3.158  0.2827 -0.0235 -0.1720
    1DPPC   C2B19882   8.339  22.200   3.665  0.0301  0.1965 -0.0664
    1DPPC   C3B19883   8.205  21.990   3.986  0.0679  0.3131 -0.0857
    1DPPC   C4B19884   8.146  22.006   4.428 -0.4056  0.0160  0.1744
    1DPPC   NC319885   1.058  11.701   2.518  0.2149  0.0035  0.1813
    1DPPC   PO419886   1.260  12.181   2.418 -0.1577  0.0461  0.1017
    1DPPC   GL119887   1.466  12.332   2.736  0.1610 -0.0912  0.0927
    1DPPC   GL219888   1.483  12.680   2.730 -0.0332  0.3121  0.0632
    1DPPC   C1A19889   1.634  12.189   3.072  0.1074  0.0264  0.0117
    1DPPC   C2A19890   1.769  12.247   3.479  0.2938 -0.3470 -0.1392
    1DPPC   C3A19891   1.824  12.375   3.862  0.3907 -0.1656 -0.1274
    1DPPC   C4A19892   1.667  12.285   4.225  0.2897 -0.1609 -0.2489
    1DPPC   C1B19893   1.545  12.718   3.166 -0.1945  0.1896 -0.1456
    1DPPC   C2B19894   1.569  12.722   3.611  0.2547 -0.1150 -0.1069
    1DPPC   C3B19895   1.543  12.761   4.023 -0.1798  0.0112 -0.4431
    1DPPC   C4B19896   1.487  12.737   4.424  0.0452 -0.0138  0.1580
    1DPPC   NC319897  29.193  25.570   2.183  0.3178 -0.0977  0.0294
    1DPPC   PO419898  29.130  25.442   2.612  0.1350  0.2292  0.1175
    1DPPC   GL119899  29.206  25.474   3.041  0.1377 -0.3063  0.0718
    1DPPC   GL219900  29.315  25.701   3.153 -0.1382  0.0035 -0.0825
    1DPPC   C1A19901  29.212  25.255   3.465 -0.2534 -0.1684  0.1994
    1DPPC   C2A19902  29.264  25.331   3.811  0.0227 -0.0051  0.1198
    1DPPC   C3A19903  29.173  25.363   4.193  0.0153  0.0405  0.0368
    1DPPC   C4A19904  28.984  25.274   4.377  0.1856  0.2012  0.1419
    1DPPC   C1B19905  29.473  25.773   3.522 -0.0341 -0.1309  0.0427
    1DPPC   C2B19906  29.400  25.769   3.945 -0.0097  0.0669  0.0117
    1DPPC   C3B19907  29.303  25.856   4.277  0.1744  0.2365  0.0602
    1DPPC   C4B19908  29.494  25.546   4.566  0.1507 -0.0187 -0.2815
    1DPPC   NC319909  27.863  20.737   1.800 -0.2113  0.3802  0.1578
    1DPPC   PO419910  28.212  20.961   2.115  0.1137  0.1639  0.4055
    1DPPC   GL119911  28.091  21.196   2.502 -0.3533  0.3064 -0.2637
    1DPPC   GL219912  28.304  21.452   2.580 -0.1069 -0.1224 -0.4595
    1DPPC   C1A19913  28.201  21.192   2.967 -0.2012  0.2588 -0.0343
    1DPPC   C2A19914  28.193  21.025   3.388 -0.2599 -0.2249 -0.2138
    1DPPC   C3A19915  28.110  20.769   3.706  0.0977 -0.1413 -0.0841
    1DPPC   C4A19916  28.275  20.738   4.135 -0.1742 -0.0961  0.0386
    1DPPC   C1B19917  28.516  21.704   2.902 -0.1219 -0.0560 -0.0511
    1DPPC   C2B19918  28.494  21.971   3.267  0.1738 -0.0352 -0.1119
    1DPPC   C3B19919  28.630  22.154   3.560  0.1131 -0.2143  0.0834
    1DPPC   C4B19920  28.383  22.373   3.869 -0.1566  0.0090 -0.1843
    1DPPC   NC319921  12.441  25.617   2.417  0.4111  0.0935 -0.0254
    1DPPC   PO419922  12.459  25.297   2.581  0.7023 -0.1298  0.1953
    1DPPC   GL119923  12.670  25.177   3.037  0.1774 -0.1403  0.2988
    1DPPC   GL219924  12.723  24.917   3.250 -0.1592  0.3607  0.2939
    1DPPC   C1A19925  12.841  25.270   3.546  0.1481 -0.1597  0.4832
    1DPPC   C2A19926  12.681  25.356   3.947  0.2403  0.0951 -0.3436
    1DPPC   C3A19927  12.340  25.281   4.286  0.1778 -0.0085  0.1883
    1DPPC   C4A19928  11.888  25.074   4.436 -0.2042 -0.0471  0.2095
    1DPPC   C1B19929  12.478  24.933   3.518  0.1036 -0.2362  0.3114
    1DPPC   C2B19930  12.213  25.144   3.833  0.0127 -0.2949 -0.0410
    1DPPC   C3B19931  11.770  25.065   3.907  0.0169 -0.0979 -0.1349
    1DPPC   C4B19932  11.496  24.859   4.230  0.2993 -0.0450 -0.5317
    1DPPC   NC319933  26.935  16.103   1.700  0.0987 -0.1506  0.2762
    1DPPC   PO419934  26.587  15.717   1.750  0.1076  0.2732  0.1052
    1DPPC   GL119935  26.680  15.977   2.091  0.1177 -0.1945 -0.0307
    1DPPC   GL219936  26.569  15.854   2.420 -0.0615  0.0651  0.1539
    1DPPC   C1A19937  27.011  16.116   2.502 -0.0255  0.0217 -0.2635
    1DPPC   C2A19938  26.970  16.125   2.933  0.2399 -0.0782  0.0096
    1DPPC   C3A19939  27.026  16.159   3.318  0.0711 -0.0581  0.3373
    1DPPC   C4A19940  27.110  16.141   3.819  0.0484  0.1517 -0.2862
    1DPPC   C1B19941  26.601  15.789   2.843 -0.2199 -0.0266  0.0551
    1DPPC   C2B19942  26.664  15.822   3.203  0.0771  0.1925  0.1600
    1DPPC   C3B19943  26.918  15.694   3.449  0.2465  0.0294 -0.1528
    1DPPC   C4B19944  27.135  15.463   3.425  0.0854  0.0222  0.3278
    1DPPC   NC319945  30.102  18.494   1.255  0.1894  0.0490 -0.0950
    1DPPC   PO419946  29.684  18.730   1.559  0.0516 -0.4790 -0.1154
    1DPPC   GL119947  29.783  18.422   2.032  0.0016  0.0884  0.1544
    1DPPC   GL219948  30.108  18.290   2.165 -0.0615 -0.1098 -0.3041
    1DPPC   C1A19949  29.639  18.363   2.434  0.0985  0.2026  0.0149
    1DPPC   C2A19950  29.695  18.393   2.851  0.0974 -0.1193 -0.2251
    1DPPC   C3A19951  29.728  18.307   3.340  0.1038 -0.0783  0.1890
    1DPPC   C4A19952  29.748  18.095   3.736 -0.0929  0.0348 -0.2599
    1DPPC   C1B19953  30.100  18.285   2.625 -0.1516  0.3762 -0.1195
    1DPPC   C2B19954  30.117  18.225   3.070  0.3080  0.1109  0.0909
    1DPPC   C3B19955  30.164  18.130   3.419 -0.2603 -0.0494  0.1846
    1DPPC   C4B19956  30.211  18.100   3.842 -0.0711 -0.0457  0.1200
    1DPPC   NC319957   1.813  17.462   1.860  0.1719  0.1049 -0.1165
    1DPPC   PO419958   1.967  17.809   1.967  0.2557 -0.0442  0.1300
    1DPPC   GL119959   1.951  17.623   2.354  0.0177  0.1219 -0.0740
    1DPPC   GL219960   1.572  17.588   2.362 -0.1457 -0.2135  0.1730
    1DPPC   C1A19961   1.786  17.544   2.843 -0.0292  0.2165 -0.0681
    1DPPC   C2A19962   1.765  17.665   3.293  0.0995 -0.2400 -0.1509
    1DPPC   C3A19963   1.659  17.971   3.622 -0.1864  0.0006 -0.1694
    1DPPC   C4A19964   1.894  18.288   3.732 -0.0270  0.4530  0.1460
    1DPPC   C1B19965   1.337  17.363   2.702 -0.0299 -0.2369 -0.0091
    1DPPC   C2B19966   1.327  17.406   3.110  0.0139  0.1804  0.0027
    1DPPC   C3B19967   1.391  17.459   3.569  0.1349  0.2801 -0.0965
    1DPPC   C4B19968   1.432  17.487   4.000  0.0569 -0.1815  0.0325
    1DPPC   NC319969  26.867  14.795   1.734 -0.0424 -0.0815 -0.2205
    1DPPC   PO419970  26.898  14.430   2.027  0.0431  0.2345 -0.0030
    1DPPC   GL119971  27.004  14.293   2.455 -0.0836 -0.1464 -0.0012
    1DPPC   GL219972  26.726  14.296   2.677  0.1964 -0.2371  0.1126
    1DPPC   C1A19973  27.143  14.109   2.844 -0.0544 -0.2352 -0.2741
    1DPPC   C2A19974  27.191  14.170   3.269  0.5114  0.0943  0.2004
    1DPPC   C3A19975  27.346  14.228   3.715 -0.0929  0.0192 -0.2423
    1DPPC   C4A19976  27.653  14.312   4.098  0.0460  0.2428 -0.1108
    1DPPC   C1B19977  26.689  14.260   3.107 -0.0345  0.0987  0.0342
    1DPPC   C2B19978  26.712  14.511   3.447  0.2610 -0.0865 -0.0968
    1DPPC   C3B19979  26.563  14.591   3.883 -0.1000 -0.2821  0.1747
    1DPPC   C4B19980  26.617  15.033   4.108 -0.0144  0.1288  0.0916
    1DPPC   NC319981  26.176  13.310   2.130 -0.2372  0.1596  0.1209
    1DPPC   PO419982  26.136  13.740   2.240  0.0149 -0.2402 -0.0637
    1DPPC   GL119983  26.248  13.894   2.673 -0.0682  0.2169  0.2591
    1DPPC   GL219984  26.605  13.847   2.852  0.1749 -0.0658 -0.2065
    1DPPC   C1A19985  26.170  14.241   2.960  0.1502  0.1701 -0.0861
    1DPPC   C2A19986  26.196  14.377   3.398 -0.2136  0.0612  0.1806
    1DPPC   C3A19987  26.125  14.466   3.840  0.1512 -0.1375 -0.2105
    1DPPC   C4A19988  26.274  14.245   4.278 -0.1326 -0.0652  0.0230
    1DPPC   C1B19989  26.455  13.447   3.040 -0.1001  0.1310 -0.0587
    1DPPC   C2B19990  26.491  13.327   3.457 -0.0989 -0.0407 -0.1706
    1DPPC   C3B19991  26.540  13.081   3.907  0.4134  0.2816 -0.1132
    1DPPC   C4B19992  26.400  13.254   4.269  0.3058  0.0940 -0.0917
    1DPPC   NC319993   1.337  23.922   2.744  0.1333 -0.2176  0.0940
    1DPPC   PO419994   1.643  23.494   2.752  0.1449  0.2321  0.3969
    1DPPC   GL119995   1.774  23.419   3.130 -0.0113  0.0629  0.1418
    1DPPC   GL219996   1.608  23.656   3.279 -0.5168 -0.0096  0.0039
    1DPPC   C1A19997   2.064  23.466   3.458 -0.3311 -0.1602  0.3451
    1DPPC   C2A19998   2.258  23.370   3.854 -0.1442 -0.0585  0.0766
    1DPPC   C3A19999   2.390  23.440   4.337  0.2274  0.5062  0.2372
    1DPPC   C4A20000   2.742  23.460   4.670 -0.1734  0.1255  0.0499
    1DPPC   C1B20001   1.702  23.760   3.671  0.1902  0.3965 -0.0719
    1DPPC   C2B20002   1.854  23.690   3.947 -0.2244 -0.0174  0.2330
    1DPPC   C3B20003   1.896  23.464   4.283 -0.1310  0.3063 -0.0663
    1DPPC   C4B20004   1.972  23.203   4.622 -0.1418 -0.1895 -0.0785
    1DPPC   NC320005  24.946  16.189   2.110 -0.3164  0.0602 -0.0154
    1DPPC   PO420006  25.318  16.321   2.239  0.3587 -0.2027  0.2464
    1DPPC   GL120007  25.607  16.523   2.536  0.0737  0.0025 -0.0099
    1DPPC   GL220008  25.498  16.722   2.641 -0.1329  0.3321 -0.0685
    1DPPC   C1A20009  25.805  16.353   2.835  0.1561  0.0128 -0.1161
    1DPPC   C2A20010  26.002  16.291   3.145 -0.1826 -0.1132  0.1593
    1DPPC   C3A20011  26.147  16.357   3.547 -0.2835  0.0564  0.0812
    1DPPC   C4A20012  26.216  16.309   3.912 -0.0268  0.3056  0.0839
    1DPPC   C1B20013  25.512  16.688   3.048 -0.1240  0.0533  0.0959
    1DPPC   C2B20014  25.596  16.437   3.427  0.0675 -0.1882  0.2715
    1DPPC   C3B20015  25.343  16.090   3.632  0.0621  0.1774 -0.0521
    1DPPC   C4B20016  25.133  16.221   3.930  0.2562 -0.0594  0.1144
    1DPPC   NC320017  24.098  16.391   2.159 -0.5064 -0.1247  0.0700
    1DPPC   PO420018  24.530  16.493   2.158 -0.0863  0.0538  0.1753
    1DPPC   GL120019  24.353  16.555   2.596  0.1122 -0.0126 -0.0763
    1DPPC   GL220020  24.261  16.881   2.655  0.0693 -0.1373 -0.0986
    1DPPC   C1A20021  24.029  16.571   2.944  0.3734  0.0876 -0.1968
    1DPPC   C2A20022  24.009  16.526   3.393  0.0773  0.1373 -0.3592
    1DPPC   C3A20023  24.178  16.407   3.766 -0.4300  0.0069 -0.0006
    1DPPC   C4A20024  24.254  16.701   4.061  0.1378  0.0143 -0.2549
    1DPPC   C1B20025  24.347  16.928   3.138  0.0719  0.1391  0.0126
    1DPPC   C2B20026  24.324  16.922   3.542  0.2350  0.1624 -0.0488
    1DPPC   C3B20027  24.626  17.084   3.917 -0.0235 -0.2865  0.0103
    1DPPC   C4B20028  24.725  17.226   4.309  0.0181  0.0419  0.0823
    1DPPC   NC320029   7.213  16.408   1.940  0.1173 -0.1957  0.0363
    1DPPC   PO420030   7.398  16.816   2.017 -0.1889  0.2868  0.0331
    1DPPC   GL120031   7.162  17.060   2.250  0.3133 -0.0582 -0.2802
    1DPPC   GL220032   7.321  17.307   2.388  0.0405 -0.0046 -0.0762
    1DPPC   C1A20033   6.858  17.003   2.677  0.2841 -0.3090 -0.2739
    1DPPC   C2A20034   6.604  17.100   3.101  0.1228  0.0698 -0.2461
    1DPPC   C3A20035   6.612  17.307   3.459  0.0446  0.0518 -0.4081
    1DPPC   C4A20036   6.300  17.528   3.658  0.1116 -0.0446  0.2644
    1DPPC   C1B20037   7.382  17.099   2.839 -0.6043  0.1592 -0.2745
    1DPPC   C2B20038   7.472  17.076   3.256 -0.0399  0.2238 -0.0122
    1DPPC   C3B20039   7.428  16.873   3.643  0.3678 -0.0753 -0.0316
    1DPPC   C4B20040   7.574  16.647   3.986  0.2398 -0.0245 -0.0568
    1DPPC   NC320041  24.757  14.231   2.171 -0.1024  0.0116  0.0885
    1DPPC   PO420042  25.006  14.548   2.269  0.3907 -0.0561  0.0857
    1DPPC   GL120043  24.962  14.670   2.724 -0.0850  0.1055  0.1350
    1DPPC   GL220044  25.317  14.617   2.785 -0.2720 -0.1168 -0.0797
    1DPPC   C1A20045  24.862  14.562   3.134  0.1073  0.1987 -0.0100
    1DPPC   C2A20046  24.890  14.513   3.594  0.0289 -0.5198  0.1463
    1DPPC   C3A20047  24.919  14.179   3.907  0.1308  0.2010  0.2076
    1DPPC   C4A20048  25.049  13.978   4.221 -0.2841  0.1329 -0.1263
    1DPPC   C1B20049  25.334  14.643   3.361 -0.2641  0.0921  0.1836
    1DPPC   C2B20050  25.320  14.353   3.643  0.0071 -0.1955  0.0696
    1DPPC   C3B20051  25.376  14.250   4.011 -0.1278 -0.4389 -0.1047
    1DPPC   C4B20052  25.823  14.209   4.191  0.2217 -0.3783  0.1665
    1DPPC   NC320053   8.051  12.052   3.060  0.6843  0.0323 -0.1398
    1DPPC   PO420054   8.304  12.421   2.976 -0.0898  0.3644  0.0918
    1DPPC   GL120055   8.104  12.482   3.348 -0.1891 -0.2420  0.1605
    1DPPC   GL220056   8.185  12.275   3.567  0.2321  0.1248  0.3061
    1DPPC   C1A20057   8.135  12.767   3.623 -0.1950  0.0568  0.1053
    1DPPC   C2A20058   7.929  12.864   3.989  0.0580  0.1477 -0.0671
    1DPPC   C3A20059   8.036  12.830   4.456  0.4861  0.3091  0.0844
    1DPPC   C4A20060   8.175  12.847   4.945 -0.1172 -0.3831  0.0362
    1DPPC   C1B20061   7.933  12.058   3.873  0.0293 -0.1966 -0.1491
    1DPPC   C2B20062   7.848  11.864   4.212  0.3368  0.1381  0.1148
    1DPPC   C3B20063   7.802  11.953   4.577  0.2538  0.1448  0.2351
    1DPPC   C4B20064   7.846  12.307   4.889 -0.1634 -0.2815  0.1566
    1DIPC   NC320065  12.101  22.069   2.210  0.1505 -0.1603  0.0509
    1DIPC   PO420066  12.594  22.333   2.447 -0.0177  0.0168  0.1103
    1DIPC   GL120067  12.812  22.366   2.890  0.0895  0.0187  0.1539
    1DIPC   GL220068  12.594  22.110   2.949  0.2875 -0.2501  0.0940
    1DIPC   C1A20069  12.805  22.253   3.384  0.6051 -0.0276  0.1098
    1DIPC   D2A20070  12.890  22.211   3.794  0.3146  0.0876 -0.1242
    1DIPC   D3A20071  12.854  22.719   3.973 -0.2676  0.2066  0.2060
    1DIPC   C4A20072  12.987  23.138   4.059  0.0839  0.1465  0.1193
    1DIPC   C1B20073  12.325  22.148   3.311 -0.0472  0.0868  0.3901
    1DIPC   D2B20074  11.993  22.304   3.524  0.0821  0.1705 -0.2321
    1DIPC   D3B20075  11.859  22.038   3.891  0.0363  0.0544 -0.0862
    1DIPC   C4B20076  11.986  21.993   4.244  0.0551 -0.1305 -0.1360
    1DIPC   NC320077  19.021  19.992   1.646 -0.0693  0.0141 -0.1848
    1DIPC   PO420078  18.802  19.940   2.115 -0.0607  0.1593 -0.0401
    1DIPC   GL120079  18.960  19.657   2.409  0.1657  0.3570 -0.1957
    1DIPC   GL220080  18.764  19.529   2.693 -0.1185 -0.1882  0.5016
    1DIPC   C1A20081  19.226  19.495   2.771  0.0836 -0.1166 -0.0869
    1DIPC   D2A20082  19.067  19.143   2.988  0.0296 -0.3287  0.2892
    1DIPC   D3A20083  18.839  19.102   3.269  0.2687 -0.1963  0.4406
    1DIPC   C4A20084  18.972  19.194   3.639 -0.0356  0.0220 -0.0665
    1DIPC   C1B20085  18.452  19.450   3.171  0.1098  0.3892 -0.4892
    1DIPC   D2B20086  18.458  19.064   3.531  0.1146  0.0651 -0.0815
    1DIPC   D3B20087  18.556  19.196   3.957  0.4348 -0.1206 -0.0367
    1DIPC   C4B20088  18.155  19.485   4.125 -0.3222  0.2524 -0.0587
    1DIPC   NC320089   0.292   5.490   2.925  0.1479 -0.0246  0.1068
    1DIPC   PO420090   0.670   5.311   3.188  0.1071 -0.3332 -0.1261
    1DIPC   GL120091   0.719   5.163   3.491  0.0788 -0.2350 -0.0005
    1DIPC   GL220092   0.904   5.453   3.601 -0.1896 -0.0465 -0.0603
    1DIPC   C1A20093   0.885   5.079   3.898 -0.0619 -0.2154 -0.1441
    1DIPC   D2A20094   0.719   4.801   4.206 -0.1989 -0.2849 -0.2679
    1DIPC   D3A20095   0.829   4.838   4.665  0.1389 -0.0744 -0.4292
    1DIPC   C4A20096   1.171   5.073   4.936  0.1926  0.3272  0.0300
    1DIPC   C1B20097   0.819   5.883   3.729 -0.0593  0.2666 -0.1223
    1DIPC   D2B20098   0.716   6.148   4.171 -0.0813 -0.3420  0.1338
    1DIPC   D3B20099   0.666   5.855   4.409 -0.1131  0.0815 -0.0087
    1DIPC   C4B20100   0.375   5.660   4.632 -0.0082 -0.2020 -0.1246
    1DIPC   NC320101   0.753  26.239   3.386  0.0446  0.0553  0.0108
    1DIPC   PO420102   0.900  25.839   3.488  0.1053  0.1058 -0.2000
    1DIPC   GL120103   0.665  25.545   3.857 -0.1501 -0.0095 -0.0843
    1DIPC   GL220104   0.318  25.747   3.809 -0.1035  0.1406 -0.0104
    1DIPC   C1A20105   0.737  25.710   4.270  0.1137 -0.1084 -0.1346
    1DIPC   D2A20106   0.690  25.867   4.601 -0.3089 -0.0703  0.0112
    1DIPC   D3A20107   0.493  26.204   4.764  0.0542 -0.0172  0.1089
    1DIPC   C4A20108   0.532  26.359   5.140 -0.0403  0.2082 -0.2987
    1DIPC   C1B20109   0.187  25.569   4.272  0.0972  0.2181  0.2446
    1DIPC   D2B20110   0.267  25.650   4.666 -0.2122  0.1477  0.1646
    1DIPC   D3B20111   0.267  25.188   4.872  0.2717 -0.1876  0.1717
    1DIPC   C4B20112   0.265  24.936   4.548 -0.1517 -0.4404  0.0143
    1DIPC   NC320113  16.201   7.950   2.024  0.1190 -0.2995 -0.0887
    1DIPC   PO420114  16.588   8.086   2.285 -0.0113 -0.2602  0.2306
    1DIPC   GL120115  16.489   8.497   2.593 -0.3051 -0.4213 -0.1269
    1DIPC   GL220116  16.247   8.489   2.805  0.0291  0.0638 -0.0079
    1DIPC   C1A20117  16.594   8.778   3.023  0.1841  0.0651  0.1939
    1DIPC   D2A20118  16.528   8.612   3.512 -0.0777  0.0119  0.0830
    1DIPC   D3A20119  16.367   8.965   3.815 -0.1195  0.1133 -0.2138
    1DIPC   C4A20120  16.595   9.089   4.257  0.0336  0.0116 -0.0637
    1DIPC   C1B20121  16.222   8.325   3.203  0.0905  0.0574 -0.2808
    1DIPC   D2B20122  15.991   7.998   3.277  0.1765  0.2601 -0.1249
    1DIPC   D3B20123  16.090   7.793   3.683 -0.1715  0.0046 -0.1150
    1DIPC   C4B20124  16.271   8.044   3.921  0.0560 -0.2368 -0.0636
    1DIPC   NC320125  12.654   7.379   2.710 -0.0882  0.0514 -0.2507
    1DIPC   PO420126  13.065   7.458   2.982  0.0552  0.1644  0.0247
    1DIPC   GL120127  12.955   7.521   3.368  0.3204 -0.0508 -0.1793
    1DIPC   GL220128  12.676   7.760   3.569 -0.0436  0.0985  0.0941
    1DIPC   C1A20129  13.102   7.525   3.786 -0.0840 -0.2908 -0.1458
    1DIPC   D2A20130  13.349   7.599   4.184 -0.0287 -0.1690  0.0012
    1DIPC   D3A20131  13.159   7.880   4.130 -0.2895  0.2261 -0.1320
    1DIPC   C4A20132  12.794   7.975   4.365 -0.0419 -0.1864  0.3398
    1DIPC   C1B20133  12.645   7.441   3.873  0.2355  0.0576  0.0900
    1DIPC   D2B20134  12.854   7.456   4.282 -0.0054  0.0971 -0.3402
    1DIPC   D3B20135  12.674   7.511   4.718 -0.1644 -0.1233  0.1055
    1DIPC   C4B20136  12.621   7.211   5.145  0.1092 -0.0346 -0.2022
    1DIPC   NC320137  29.948   5.688   2.955 -0.1937 -0.4281  0.0433
    1DIPC   PO420138  30.349   5.867   2.811  0.0912 -0.0287 -0.1703
    1DIPC   GL120139   0.034   5.957   3.227 -0.0519 -0.0125 -0.1955
    1DIPC   GL220140  30.272   5.613   3.354  0.1010 -0.0689  0.0050
    1DIPC   C1A20141  30.212   6.112   3.574  0.2603  0.4343 -0.0343
    1DIPC   D2A20142  30.272   6.403   3.839 -0.1667 -0.4117  0.4168
    1DIPC   D3A20143  30.222   6.518   4.382 -0.0918 -0.0742 -0.4048
    1DIPC   C4A20144  29.986   6.920   4.488  0.1938  0.1607 -0.3623
    1DIPC   C1B20145  30.015   5.565   3.792  0.0135  0.1336  0.0447
    1DIPC   D2B20146  30.043   5.544   4.243  0.3490  0.0598  0.1363
    1DIPC   D3B20147  29.660   5.695   4.475  0.1059  0.1776  0.0044
    1DIPC   C4B20148  29.620   5.736   4.836 -0.0443  0.2479 -0.0173
    1DIPC   NC320149  15.251  20.253   2.195  0.1042  0.1695  0.4901
    1DIPC   PO420150  14.876  20.425   2.197 -0.2936  0.0118  0.1230
    1DIPC   GL120151  14.876  20.151   2.556 -0.0189  0.1870 -0.2071
    1DIPC   GL220152  14.815  20.349   2.722 -0.2019 -0.3120  0.1787
    1DIPC   C1A20153  14.546  20.043   2.948  0.2229 -0.0202 -0.0451
    1DIPC   D2A20154  14.317  19.900   3.304  0.0995 -0.0109 -0.0470
    1DIPC   D3A20155  13.990  19.632   3.064  0.1894 -0.1562 -0.2885
    1DIPC   C4A20156  13.680  19.622   3.003  0.0910  0.3514  0.0496
    1DIPC   C1B20157  14.722  20.549   3.166 -0.1417  0.0268  0.2213
    1DIPC   D2B20158  14.614  20.291   3.459  0.3215  0.0876 -0.2488
    1DIPC   D3B20159  14.651  20.616   3.667 -0.1433  0.1397  0.2847
    1DIPC   C4B20160  14.434  20.555   4.030 -0.1049  0.1406  0.1171
    1DIPC   NC320161  13.997  22.188   2.502 -0.1185 -0.1389 -0.1085
    1DIPC   PO420162  13.508  22.178   2.581  0.2675 -0.0731  0.1384
    1DIPC   GL120163  13.624  22.211   3.000  0.0933 -0.1899 -0.2513
    1DIPC   GL220164  13.840  21.961   3.175  0.1199 -0.0097  0.2492
    1DIPC   C1A20165  13.344  22.222   3.336 -0.0890  0.4837 -0.1776
    1DIPC   D2A20166  13.460  22.022   3.796 -0.1396  0.2113  0.2211
    1DIPC   D3A20167  13.591  22.023   4.246 -0.0517 -0.2179 -0.0021
    1DIPC   C4A20168  13.369  21.886   4.608 -0.0394 -0.0050  0.1412
    1DIPC   C1B20169  13.857  21.535   3.455  0.0263 -0.1086  0.1983
    1DIPC   D2B20170  13.779  21.519   3.906  0.2125  0.0774  0.0708
    1DIPC   D3B20171  13.393  21.245   4.062  0.5114 -0.1423 -0.1388
    1DIPC   C4B20172  13.422  20.855   3.883  0.2643  0.2359 -0.0639
    1DIPC   NC320173  11.477   6.514   2.489 -0.0308  0.0843  0.3614
    1DIPC   PO420174  11.057   6.766   2.451  0.1301  0.0250  0.0324
    1DIPC   GL120175  11.039   6.346   2.725  0.3108  0.0575  0.1170
    1DIPC   GL220176  11.389   6.217   2.874  0.0513  0.0276 -0.0635
    1DIPC   C1A20177  11.001   6.189   3.185 -0.2568  0.0831  0.5480
    1DIPC   D2A20178  11.223   5.872   3.275 -0.2652 -0.1963 -0.1664
    1DIPC   D3A20179  11.080   5.962   3.685 -0.0296  0.0031  0.3478
    1DIPC   C4A20180  11.405   5.971   3.995  0.0328  0.1594 -0.2984
    1DIPC   C1B20181  11.541   6.316   3.254 -0.3657 -0.4496 -0.3505
    1DIPC   D2B20182  11.484   6.269   3.631  0.3660  0.3583 -0.4065
    1DIPC   D3B20183  11.513   6.443   4.043  0.2002  0.0369 -0.0050
    1DIPC   C4B20184  11.346   6.861   4.115 -0.2234  0.0454  0.0327
    1DIPC   NC320185  27.717   9.636   2.208 -0.0286  0.2731 -0.1542
    1DIPC   PO420186  27.284   9.462   2.233 -0.0057  0.1880  0.0890
    1DIPC   GL120187  27.322   9.383   2.755 -0.2402 -0.0253  0.2087
    1DIPC   GL220188  27.088   9.120   2.764 -0.1408 -0.0897  0.1215
    1DIPC   C1A20189  27.484   9.336   3.159  0.1174  0.1589 -0.2288
    1DIPC   D2A20190  27.442   9.236   3.511 -0.0486  0.2274 -0.0427
    1DIPC   D3A20191  27.556   9.378   3.952 -0.0001 -0.0766  0.1541
    1DIPC   C4A20192  27.527   9.144   4.351  0.2131 -0.0165  0.0303
    1DIPC   C1B20193  26.981   9.072   3.214  0.2928 -0.4873  0.3710
    1DIPC   D2B20194  27.066   8.869   3.570  0.0123  0.1014  0.0422
    1DIPC   D3B20195  27.089   9.152   3.946 -0.1033 -0.0706  0.1949
    1DIPC   C4B20196  27.055   9.295   4.371 -0.0205 -0.0625  0.2358
    1DIPC   NC320197  27.752   2.271   3.946  0.0607 -0.0917  0.1537
    1DIPC   PO420198  28.128   2.306   3.998  0.0050 -0.5116 -0.0027
    1DIPC   GL120199  27.895   2.339   4.382 -0.2004  0.0687 -0.0568
    1DIPC   GL220200  27.909   1.981   4.440 -0.4004 -0.0354  0.2766
    1DIPC   C1A20201  27.913   2.418   4.782  0.2167  0.2638  0.2235
    1DIPC   D2A20202  28.022   2.676   5.133 -0.2238  0.0245 -0.1183
    1DIPC   D3A20203  28.315   2.518   5.376 -0.2656 -0.2907  0.2734
    1DIPC   C4A20204  28.673   2.707   5.686 -0.0803  0.3223  0.0762
    1DIPC   C1B20205  27.909   1.963   4.892 -0.2651  0.2971  0.1343
    1DIPC   D2B20206  27.984   2.209   5.227  0.1276 -0.0632  0.2841
    1DIPC   D3B20207  27.828   2.571   5.545 -0.3654 -0.2643 -0.1345
    1DIPC   C4B20208  27.776   2.995   5.415 -0.2176  0.0697  0.0781
    1DIPC   NC320209  28.222   8.933   2.147 -0.1422  0.1192  0.4121
    1DIPC   PO420210  28.135   9.377   2.227 -0.2344  0.2496  0.0487
    1DIPC   GL120211  28.220   9.532   2.632 -0.2999 -0.0009 -0.3010
    1DIPC   GL220212  27.905   9.611   2.713 -0.2998 -0.2519 -0.0278
    1DIPC   C1A20213  28.206   9.247   3.048 -0.1096  0.0686  0.2145
    1DIPC   D2A20214  28.421   9.294   3.418  0.0323  0.0682  0.0612
    1DIPC   D3A20215  28.452   8.852   3.439 -0.2173 -0.1423 -0.0769
    1DIPC   C4A20216  28.217   8.612   3.784 -0.1259  0.1489 -0.3978
    1DIPC   C1B20217  27.895   9.674   3.119  0.0709  0.0959 -0.2772
    1DIPC   D2B20218  27.922   9.494   3.546 -0.0711  0.1001  0.3961
    1DIPC   D3B20219  28.180   9.565   3.975 -0.1905  0.2341 -0.1605
    1DIPC   C4B20220  27.977   9.514   4.390 -0.3169  0.1274 -0.1738
    1DIPC   NC320221  26.427  10.634   2.106 -0.1752 -0.0071  0.2689
    1DIPC   PO420222  26.820  10.537   2.382 -0.2678  0.0506 -0.3373
    1DIPC   GL120223  26.775  10.597   2.802  0.3334  0.1061 -0.0763
    1DIPC   GL220224  27.056  10.672   2.785 -0.0424  0.1673 -0.2420
    1DIPC   C1A20225  26.712  10.554   3.197 -0.1975  0.1095 -0.3077
    1DIPC   D2A20226  26.531  10.705   3.532 -0.0396 -0.0858 -0.2553
    1DIPC   D3A20227  26.643  10.391   3.867 -0.1447  0.3310  0.2128
    1DIPC   C4A20228  26.475  10.036   4.103  0.2522 -0.1006  0.2147
    1DIPC   C1B20229  27.293  10.501   3.115 -0.1950  0.3310 -0.0237
    1DIPC   D2B20230  27.133  10.555   3.508  0.0391 -0.1001 -0.2287
    1DIPC   D3B20231  27.521  10.622   3.827 -0.3630  0.2520 -0.1755
    1DIPC   C4B20232  27.917  10.597   4.135  0.0183  0.1474  0.2063
    1DIPC   NC320233  17.534  20.316   2.383 -0.1009  0.0965  0.1430
    1DIPC   PO420234  17.861  20.592   2.493  0.3679  0.3352 -0.0866
    1DIPC   GL120235  17.789  20.282   2.983  0.1268 -0.2113  0.2368
    1DIPC   GL220236  17.981  19.965   3.020 -0.3143  0.0091 -0.1506
    1DIPC   C1A20237  17.642  20.079   3.350  0.2032  0.1017 -0.2979
    1DIPC   D2A20238  17.446  19.797   3.573  0.1893  0.5056  0.1769
    1DIPC   D3A20239  17.258  20.071   3.649  0.0139 -0.1302  0.2958
    1DIPC   C4A20240  17.498  20.511   3.468 -0.2143 -0.0309 -0.2033
    1DIPC   C1B20241  17.788  19.559   3.097  0.3462 -0.0211 -0.3400
    1DIPC   D2B20242  17.349  19.554   3.075  0.0539 -0.1686  0.0191
    1DIPC   D3B20243  16.981  19.553   3.333 -0.0917 -0.1671  0.0755
    1DIPC   C4B20244  16.905  19.814   3.811 -0.1061  0.4782  0.1591
    1DIPC   NC320245  19.610  19.554   1.859 -0.1227  0.1509 -0.0112
    1DIPC   PO420246  19.818  19.241   2.010 -0.1879 -0.2899  0.1573
    1DIPC   GL120247  19.980  19.228   2.437  0.1375 -0.2605  0.0706
    1DIPC   GL220248  20.118  18.964   2.429  0.1069 -0.2203 -0.3775
    1DIPC   C1A20249  20.083  19.162   2.858 -0.3587  0.0435 -0.0539
    1DIPC   D2A20250  20.001  19.271   3.361 -0.0535 -0.2776  0.1281
    1DIPC   D3A20251  19.710  19.141   3.602  0.2843  0.3161  0.4365
    1DIPC   C4A20252  19.450  19.330   3.877  0.6381  0.0255  0.0148
    1DIPC   C1B20253  20.456  19.326   2.558 -0.2728 -0.0774 -0.2129
    1DIPC   D2B20254  20.746  19.522   2.753 -0.2008 -0.3989 -0.0702
    1DIPC   D3B20255  20.846  19.629   3.166  0.0637 -0.1267 -0.1242
    1DIPC   C4B20256  20.640  19.418   3.619 -0.1211  0.1820  0.0554
    1DIPC   NC320257  19.297   9.025   1.985 -0.3341 -0.0145  0.0168
    1DIPC   PO420258  19.601   8.728   2.261 -0.2650 -0.1330 -0.0498
    1DIPC   GL120259  19.350   8.632   2.682  0.1776  0.2975 -0.0836
    1DIPC   GL220260  19.406   8.303   2.703  0.5064 -0.0727 -0.0547
    1DIPC   C1A20261  19.155   8.699   3.043  0.0455 -0.0387 -0.0735
    1DIPC   D2A20262  18.838   8.576   3.333  0.1558 -0.4016 -0.0386
    1DIPC   D3A20263  18.717   8.606   3.806  0.3260  0.1061 -0.2891
    1DIPC   C4A20264  18.910   8.995   3.997  0.0121  0.1215  0.1371
    1DIPC   C1B20265  19.014   8.198   3.004 -0.2316 -0.2383 -0.1277
    1DIPC   D2B20266  18.736   8.032   3.292  0.2633 -0.0496  0.0115
    1DIPC   D3B20267  19.065   7.959   3.512 -0.1139 -0.1991  0.0720
    1DIPC   C4B20268  19.255   7.638   3.258  0.0793  0.1765  0.2040
    1DIPC   NC320269  10.663  27.285   2.268 -0.0333 -0.1018  0.1527
    1DIPC   PO420270  10.547  27.598   2.571 -0.1246  0.1727  0.0326
    1DIPC   GL120271  10.786  27.508   3.019  0.1147 -0.0135 -0.0573
    1DIPC   GL220272  10.499  27.419   3.250 -0.1454 -0.2820 -0.1489
    1DIPC   C1A20273  11.012  27.322   3.335 -0.4107 -0.2404  0.2404
    1DIPC   D2A20274  11.166  27.013   3.504  0.0021 -0.0467 -0.1555
    1DIPC   D3A20275  11.340  27.233   3.769  0.1485  0.3693  0.0081
    1DIPC   C4A20276  11.706  27.194   4.038 -0.0300  0.2314 -0.1333
    1DIPC   C1B20277  10.629  27.020   3.275 -0.0380 -0.1046 -0.0472
    1DIPC   D2B20278  10.447  26.638   3.424 -0.0278  0.2117  0.0907
    1DIPC   D3B20279   9.978  26.757   3.452 -0.0546  0.3148  0.0695
    1DIPC   C4B20280   9.712  26.770   3.865  0.0258 -0.3847 -0.1339
    1DIPC   NC320281  27.065  27.756   3.129 -0.1745 -0.1932  0.0074
    1DIPC   PO420282  27.429  27.774   3.366 -0.0332 -0.0586  0.5731
    1DIPC   GL120283  27.497  27.704   3.733  0.1534 -0.0011 -0.2615
    1DIPC   GL220284  27.399  27.929   3.963 -0.0541 -0.2759  0.3411
    1DIPC   C1A20285  27.753  27.635   4.081 -0.3715  0.0163 -0.1537
    1DIPC   D2A20286  27.742  27.512   4.418  0.3356 -0.0424  0.0424
    1DIPC   D3A20287  27.977  27.186   4.697  0.1669  0.0020 -0.1728
    1DIPC   C4A20288  28.273  26.881   4.513  0.4042 -0.0165  0.2231
    1DIPC   C1B20289  27.052  27.715   4.087 -0.0202  0.1313  0.2862
    1DIPC   D2B20290  26.615  27.683   4.377  0.0471 -0.2159  0.0296
    1DIPC   D3B20291  26.666  27.475   4.859 -0.0811  0.0086  0.2108
    1DIPC   C4B20292  26.876  27.728   5.261 -0.1006 -0.2205  0.0968
    1DIPC   NC320293  20.679  24.907   2.207 -0.1246  0.3170 -0.1177
    1DIPC   PO420294  20.204  25.015   2.449  0.1233  0.0637 -0.1105
    1DIPC   GL120295  19.983  25.116   2.855 -0.2088  0.2964 -0.0432
    1DIPC   GL220296  19.691  25.221   2.921  0.1248  0.0863  0.1406
    1DIPC   C1A20297  20.144  24.809   3.172  0.0426 -0.1634  0.1850
    1DIPC   D2A20298  20.122  24.578   3.527 -0.1486  0.2567  0.0635
    1DIPC   D3A20299  19.764  24.635   3.744  0.2950 -0.2327  0.1184
    1DIPC   C4A20300  19.644  25.018   3.918  0.1512 -0.3172 -0.2036
    1DIPC   C1B20301  19.801  25.400   3.231 -0.0977 -0.1092  0.2535
    1DIPC   D2B20302  20.004  25.634   3.647  0.2235 -0.2564 -0.0152
    1DIPC   D3B20303  20.010  25.353   4.086  0.0314  0.1478  0.1367
    1DIPC   C4B20304  20.235  24.986   3.943 -0.1742  0.0232  0.1515
    1DIPC   NC320305  15.146  29.734   2.881 -0.2424 -0.0898  0.4619
    1DIPC   PO420306  14.992  29.335   3.050 -0.0028  0.0587  0.1953
    1DIPC   GL120307  14.842  29.652   3.333 -0.1448  0.4613  0.1708
    1DIPC   GL220308  14.504  29.684   3.376 -0.0940 -0.0795  0.2404
    1DIPC   C1A20309  14.795  29.980   3.605 -0.3619  0.1462 -0.0142
    1DIPC   D2A20310  14.767   0.082   3.771 -0.4328  0.1767  0.0008
    1DIPC   D3A20311  14.563  30.079   4.047 -0.0282  0.2740  0.0781
    1DIPC   C4A20312  14.084  30.134   4.207 -0.3065  0.1324  0.0644
    1DIPC   C1B20313  14.597  29.575   3.807 -0.1511  0.4290 -0.2106
    1DIPC   D2B20314  14.701  29.393   4.152  0.1326 -0.2823  0.1064
    1DIPC   D3B20315  14.542  29.729   4.408  0.0244 -0.1248  0.0662
    1DIPC   C4B20316  14.787  30.074   4.603  0.1450  0.1379  0.1609
    1DIPC   NC320317   2.509   3.128   3.098 -0.0248  0.0752  0.1706
    1DIPC   PO420318   2.714   2.870   3.408 -0.0527  0.1289  0.3924
    1DIPC   GL120319   2.948   3.236   3.633  0.0419  0.2065  0.0445
    1DIPC   GL220320   2.647   3.353   3.613  0.0382 -0.1659  0.2924
    1DIPC   C1A20321   2.869   3.663   3.849  0.1290 -0.1718 -0.0272
    1DIPC   D2A20322   2.945   4.059   4.108  0.2229  0.0986  0.0565
    1DIPC   D3A20323   2.671   4.265   3.833 -0.1589 -0.2347  0.1781
    1DIPC   C4A20324   2.897   4.388   3.537  0.1354 -0.0821 -0.0904
    1DIPC   C1B20325   2.386   3.397   3.989 -0.2803  0.1952  0.1680
    1DIPC   D2B20326   2.120   3.059   4.253 -0.0728  0.2728  0.0881
    1DIPC   D3B20327   2.242   3.477   4.460 -0.1608 -0.0224 -0.1472
    1DIPC   C4B20328   2.153   3.911   4.534  0.1841  0.1975  0.1599
    1DIPC   NC320329  17.382  12.777   2.470  0.0499  0.0911  0.0753
    1DIPC   PO420330  17.094  12.802   2.792  0.0547  0.1634  0.1539
    1DIPC   GL120331  17.204  12.506   3.251  0.1502 -0.1257  0.0110
    1DIPC   GL220332  17.530  12.414   3.354 -0.1796 -0.0100  0.1522
    1DIPC   C1A20333  17.162  12.745   3.611  0.0914  0.0086  0.1096
    1DIPC   D2A20334  17.574  12.879   3.616  0.1804 -0.1471  0.0960
    1DIPC   D3A20335  17.561  13.290   3.890  0.3478 -0.0716  0.1207
    1DIPC   C4A20336  17.789  13.250   4.229 -0.2293  0.2603  0.0572
    1DIPC   C1B20337  17.571  12.325   3.815  0.0466 -0.0826 -0.1771
    1DIPC   D2B20338  17.276  12.003   4.046  0.4047  0.2321 -0.0221
    1DIPC   D3B20339  17.100  11.748   4.392 -0.1436 -0.2396 -0.3145
    1DIPC   C4B20340  16.945  11.959   4.780  0.0211 -0.0201  0.0981
    1DIPC   NC320341  14.477   9.200   1.676  0.3319 -0.1902 -0.0070
    1DIPC   PO420342  14.589   8.930   2.114  0.4135  0.0312 -0.0920
    1DIPC   GL120343  14.594   8.752   2.571 -0.2296 -0.0648 -0.3852
    1DIPC   GL220344  14.596   8.440   2.590  0.3278 -0.0643 -0.1367
    1DIPC   C1A20345  14.685   9.103   2.846  0.1516  0.1218  0.0768
    1DIPC   D2A20346  14.929   9.424   3.036 -0.2178  0.1651  0.0416
    1DIPC   D3A20347  14.618   9.205   3.404 -0.2958  0.0015  0.0520
    1DIPC   C4A20348  14.562   9.096   3.832  0.0335 -0.0958  0.0869
    1DIPC   C1B20349  14.486   8.552   3.037 -0.0975 -0.0129  0.1272
    1DIPC   D2B20350  13.981   8.540   3.242 -0.0135 -0.1196  0.1329
    1DIPC   D3B20351  13.980   8.278   3.589  0.2154 -0.0962 -0.0474
    1DIPC   C4B20352  14.037   8.276   3.981  0.1160  0.1559 -0.0618
    1DIPC   NC320353  13.708  10.673   3.416  0.1122  0.2897  0.3297
    1DIPC   PO420354  14.114  10.734   3.348  0.0511  0.1142 -0.3095
    1DIPC   GL120355  14.118  10.714   3.786 -0.1906  0.3008  0.1039
    1DIPC   GL220356  14.262  11.023   3.842  0.1528  0.1317 -0.2465
    1DIPC   C1A20357  14.190  10.680   4.248 -0.1797 -0.1376  0.1449
    1DIPC   D2A20358  14.237  10.652   4.620 -0.0477  0.2177  0.0592
    1DIPC   D3A20359  14.308  11.103   4.617  0.2687  0.3310 -0.0869
    1DIPC   C4A20360  14.450  11.459   5.012  0.1179  0.1585 -0.0453
    1DIPC   C1B20361  13.948  11.184   4.229  0.0686 -0.0498 -0.0131
    1DIPC   D2B20362  13.457  11.121   4.281 -0.1130  0.1699 -0.1632
    1DIPC   D3B20363  13.460  11.359   4.598 -0.0262 -0.1164 -0.0010
    1DIPC   C4B20364  13.863  11.394   4.831 -0.1547 -0.1100 -0.2050
    1DIPC   NC320365  29.321   0.269   3.843 -0.0511  0.1930 -0.1301
    1DIPC   PO420366  29.502   0.691   3.603 -0.1699 -0.0276 -0.0172
    1DIPC   GL120367  29.596   0.630   4.071  0.1138 -0.1379  0.0887
    1DIPC   GL220368  29.811   0.814   4.312 -0.2284  0.3052  0.2942
    1DIPC   C1A20369  29.310   0.751   4.402  0.1247  0.3195 -0.4489
    1DIPC   D2A20370  29.244   0.664   4.864 -0.1857  0.2261 -0.2188
    1DIPC   D3A20371  29.093   0.642   5.308 -0.2034 -0.0435  0.0238
    1DIPC   C4A20372  29.425   0.656   5.622  0.2819 -0.0195 -0.0936
    1DIPC   C1B20373  29.767   0.842   4.743 -0.0367 -0.0420 -0.3236
    1DIPC   D2B20374  29.742   0.786   5.202  0.3621  0.0007 -0.0421
    1DIPC   D3B20375  29.533   1.189   5.312 -0.1695  0.1488  0.2459
    1DIPC   C4B20376  29.151   1.091   5.465  0.2175 -0.1003  0.1363
    1DIPC   NC320377  14.680  16.654   2.293  0.0779 -0.0111  0.0827
    1DIPC   PO420378  14.744  16.807   2.772 -0.2704 -0.6200 -0.2429
    1DIPC   GL120379  14.831  16.775   3.290 -0.1044 -0.3649  0.1191
    1DIPC   GL220380  15.229  16.708   3.348 -0.0301  0.0909  0.2218
    1DIPC   C1A20381  14.938  16.971   3.658  0.3181 -0.5510  0.1409
    1DIPC   D2A20382  15.008  17.194   4.025  0.0233  0.3457  0.0673
    1DIPC   D3A20383  14.589  17.000   4.059 -0.0073  0.2104 -0.1449
    1DIPC   C4A20384  14.474  16.870   4.447 -0.1133 -0.0242  0.0054
    1DIPC   C1B20385  15.277  16.450   3.697 -0.0286 -0.2657  0.3174
    1DIPC   D2B20386  15.358  16.053   3.693 -0.1074  0.1382  0.0811
    1DIPC   D3B20387  15.254  15.717   4.001 -0.3020 -0.1658 -0.0857
    1DIPC   C4B20388  15.376  15.360   3.997 -0.1628  0.0361 -0.1898
    1DIPC   NC320389  15.284   5.766   1.859  0.0164  0.2438  0.4155
    1DIPC   PO420390  15.087   6.126   1.996 -0.0213 -0.1002 -0.0029
    1DIPC   GL120391  15.147   6.241   2.429 -0.2209 -0.2161 -0.0826
    1DIPC   GL220392  15.249   6.486   2.480  0.0592  0.0034  0.2543
    1DIPC   C1A20393  15.305   5.930   2.722 -0.1824  0.3440 -0.1995
    1DIPC   D2A20394  15.339   5.535   2.901 -0.2552  0.1638 -0.0232
    1DIPC   D3A20395  14.921   5.543   2.857  0.4837 -0.0505  0.3728
    1DIPC   C4A20396  14.623   5.553   3.206  0.1945  0.0937 -0.1166
    1DIPC   C1B20397  15.354   6.826   2.778 -0.0815 -0.1849  0.1836
    1DIPC   D2B20398  15.154   6.797   3.172  0.1140 -0.0990 -0.3209
    1DIPC   D3B20399  15.405   7.048   3.514  0.3382  0.2342  0.1843
    1DIPC   C4B20400  15.554   7.034   3.974 -0.1897 -0.1344  0.1107
    1DIPC   NC320401  13.409  25.044   2.617  0.0521  0.0072 -0.0318
    1DIPC   PO420402  13.824  25.164   2.789 -0.1502 -0.0463 -0.2531
    1DIPC   GL120403  13.885  25.131   3.213 -0.1908 -0.2639  0.2518
    1DIPC   GL220404  13.644  25.420   3.321  0.4056  0.1095 -0.2043
    1DIPC   C1A20405  13.758  24.934   3.538  0.2654 -0.0729  0.0332
    1DIPC   D2A20406  14.193  24.830   3.555  0.0467 -0.4950  0.3004
    1DIPC   D3A20407  14.139  24.706   4.006 -0.6826  0.4327 -0.2710
    1DIPC   C4A20408  13.790  24.699   4.329 -0.0511 -0.2498  0.4282
    1DIPC   C1B20409  13.525  25.400   3.687 -0.0593  0.3050 -0.2813
    1DIPC   D2B20410  13.175  25.461   3.896  0.1840  0.0610 -0.1291
    1DIPC   D3B20411  13.098  25.128   4.101  0.1862 -0.1709  0.2262
    1DIPC   C4B20412  12.783  25.100   4.360  0.0809  0.0075  0.2151
    1DIPC   NC320413   4.469   3.695   3.513 -0.0682  0.1871 -0.0338
    1DIPC   PO420414   4.602   3.389   3.247 -0.2455 -0.1059 -0.2117
    1DIPC   GL120415   4.566   3.035   3.628 -0.2296  0.2053 -0.3291
    1DIPC   GL220416   4.467   3.330   3.831 -0.0782 -0.0909  0.1387
    1DIPC   C1A20417   4.265   2.957   4.014  0.3876 -0.0073  0.1119
    1DIPC   D2A20418   3.961   2.858   4.259 -0.1077  0.2673 -0.1454
    1DIPC   D3A20419   3.761   3.143   4.063 -0.0998 -0.2406 -0.4282
    1DIPC   C4A20420   3.289   3.132   3.965 -0.2440  0.1194  0.0955
    1DIPC   C1B20421   4.359   3.461   4.227  0.1303 -0.1350  0.0482
    1DIPC   D2B20422   4.556   3.436   4.590  0.4399  0.0095 -0.1123
    1DIPC   D3B20423   4.272   3.768   4.596  0.1146  0.0508  0.2296
    1DIPC   C4B20424   3.910   3.863   4.798  0.3462 -0.0631  0.0157
    1DIPC   NC320425  25.932   3.683   3.735 -0.2620  0.2382  0.0260
    1DIPC   PO420426  26.243   3.981   3.804  0.0045  0.2702 -0.1605
    1DIPC   GL120427  26.346   4.004   4.304  0.1268  0.0847  0.1230
    1DIPC   GL220428  26.418   4.303   4.440  0.3263  0.1747  0.0203
    1DIPC   C1A20429  26.271   3.821   4.663  0.0065 -0.0557 -0.3148
    1DIPC   D2A20430  26.138   3.841   5.093  0.1618  0.1955  0.2241
    1DIPC   D3A20431  26.540   3.908   5.076  0.2372 -0.0156 -0.0321
    1DIPC   C4A20432  26.637   3.526   4.928  0.2915 -0.2513 -0.2942
    1DIPC   C1B20433  26.119   4.307   4.820 -0.3047 -0.4100 -0.1821
    1DIPC   D2B20434  26.023   4.253   5.276  0.1695 -0.0160  0.0672
    1DIPC   D3B20435  25.632   4.117   5.104  0.1533  0.1740 -0.0616
    1DIPC   C4B20436  25.298   4.292   5.043  0.0095  0.0381 -0.0874
    1DIPC   NC320437  24.511  25.057   2.966  0.3025 -0.1962 -0.1862
    1DIPC   PO420438  24.151  25.243   3.166  0.1941 -0.1019  0.1765
    1DIPC   GL120439  23.921  25.081   3.569  0.2353  0.0743  0.0376
    1DIPC   GL220440  23.660  25.163   3.662 -0.1247 -0.0388  0.0668
    1DIPC   C1A20441  23.903  24.878   4.074 -0.0078  0.0475 -0.0786
    1DIPC   D2A20442  23.551  25.097   4.399 -0.0820  0.0566 -0.2066
    1DIPC   D3A20443  23.721  24.703   4.686  0.0486  0.0492  0.1366
    1DIPC   C4A20444  23.946  24.822   5.004 -0.2914  0.0414  0.0889
    1DIPC   C1B20445  23.768  25.393   3.980  0.0203  0.1339 -0.3290
    1DIPC   D2B20446  23.807  25.722   4.317  0.4600  0.2427  0.0032
    1DIPC   D3B20447  24.131  25.585   4.512  0.0949 -0.1322 -0.1705
    1DIPC   C4B20448  24.061  25.100   4.492 -0.1317 -0.0296 -0.3474
    1DIPC   NC320449  27.482   5.682   3.149 -0.0129 -0.2124  0.0429
    1DIPC   PO420450  27.489   5.812   3.545 -0.1607 -0.3771  0.2190
    1DIPC   GL120451  27.340   5.934   3.916 -0.0735  0.1951  0.3487
    1DIPC   GL220452  27.311   5.770   4.169 -0.1368  0.0410  0.1147
    1DIPC   C1A20453  27.228   6.295   4.138  0.1372  0.1654 -0.2314
    1DIPC   D2A20454  27.423   6.590   4.414  0.1070 -0.0981  0.3274
    1DIPC   D3A20455  27.127   6.800   4.382 -0.1204  0.0720  0.1021
    1DIPC   C4A20456  27.117   7.230   4.376 -0.2340  0.2386  0.0295
    1DIPC   C1B20457  27.200   6.084   4.638  0.2266 -0.0094 -0.0497
    1DIPC   D2B20458  26.970   6.460   4.681 -0.0295 -0.2236 -0.0004
    1DIPC   D3B20459  26.733   6.345   4.350  0.0073 -0.0432 -0.0392
    1DIPC   C4B20460  26.781   6.655   4.032 -0.1900 -0.1816  0.0308
    1DIPC   NC320461  25.061   1.617   3.115 -0.0224  0.3457  0.1132
    1DIPC   PO420462  24.582   1.514   3.104 -0.0585  0.2864 -0.0211
    1DIPC   GL120463  24.363   1.626   3.496 -0.1181 -0.1898 -0.2409
    1DIPC   GL220464  24.053   1.459   3.651 -0.0115 -0.1324 -0.0530
    1DIPC   C1A20465  24.300   1.852   3.861  0.2527 -0.1388  0.1213
    1DIPC   D2A20466  24.374   1.830   4.302 -0.1370 -0.2573  0.3134
    1DIPC   D3A20467  24.167   2.082   4.395 -0.2199 -0.1577 -0.0121
    1DIPC   C4A20468  23.741   2.004   4.329 -0.0455 -0.2242  0.1860
    1DIPC   C1B20469  24.282   1.193   4.011 -0.0949  0.0945 -0.2278
    1DIPC   D2B20470  24.325   0.929   4.377 -0.0040 -0.3092 -0.1901
    1DIPC   D3B20471  23.921   0.896   4.375 -0.2932 -0.0762 -0.3072
    1DIPC   C4B20472  23.673   1.111   4.653  0.0281 -0.0669 -0.0165
    1DIPC   NC320473  18.218  20.286   2.636  0.0656 -0.0739 -0.2714
    1DIPC   PO420474  18.595  20.028   2.586 -0.0558 -0.3269  0.3446
    1DIPC   GL120475  18.505  19.999   3.005 -0.0890  0.3413 -0.2177
    1DIPC   GL220476  18.385  20.290   3.118 -0.0475 -0.1808 -0.0348
    1DIPC   C1A20477  18.701  19.830   3.372  0.1423 -0.0251 -0.0397
    1DIPC   D2A20478  18.725  19.626   3.722  0.1013  0.4157  0.1252
    1DIPC   D3A20479  18.598  19.955   4.131 -0.0994 -0.1512 -0.0265
    1DIPC   C4A20480  18.133  20.206   4.187 -0.1387 -0.0494  0.1343
    1DIPC   C1B20481  18.226  20.019   3.474 -0.1615 -0.1716 -0.2173
    1DIPC   D2B20482  17.941  19.883   3.790  0.0768  0.0023 -0.6136
    1DIPC   D3B20483  17.696  20.209   3.913 -0.1044 -0.1539  0.0364
    1DIPC   C4B20484  17.305  20.485   3.935 -0.0492 -0.1483  0.1804
    1DIPC   NC320485  14.874  30.273   2.653  0.2578 -0.0217  0.2649
    1DIPC   PO420486  15.337  30.217   2.798 -0.2298  0.0964 -0.0934
    1DIPC   GL120487  15.580   0.201   3.018  0.3565  0.2517  0.0883
    1DIPC   GL220488  15.537   0.471   3.025 -0.0303  0.0853 -0.0962
    1DIPC   C1A20489  16.046   0.300   3.117  0.1915 -0.0790 -0.2748
    1DIPC   D2A20490  16.305   0.076   3.458 -0.0322  0.0134 -0.1980
    1DIPC   D3A20491  16.192   0.480   3.605  0.2828 -0.0550  0.0700
    1DIPC   C4A20492  16.354   0.757   3.874  0.1324 -0.0775  0.1958
    1DIPC   C1B20493  15.677   0.638   3.394  0.0543  0.1173 -0.2640
    1DIPC   D2B20494  15.859   0.873   3.695  0.2063  0.0770 -0.0031
    1DIPC   D3B20495  15.780   0.751   4.073 -0.1829  0.0747  0.0918
    1DIPC   C4B20496  16.150   0.593   4.390  0.3155 -0.1746  0.0693
    1DIPC   NC320497   7.041   1.760   3.249  0.0696 -0.0089 -0.1142
    1DIPC   PO420498   6.756   2.082   3.507 -0.0179 -0.0670  0.2728
    1DIPC   GL120499   6.756   2.057   3.927 -0.0022 -0.0890  0.1803
    1DIPC   GL220500   6.470   1.901   4.124 -0.1956 -0.0060  0.0253
    1DIPC   C1A20501   6.800   2.327   4.212  0.1098 -0.1361 -0.0206
    1DIPC   D2A20502   6.973   2.692   4.350 -0.0983 -0.3438  0.0992
    1DIPC   D3A20503   6.814   2.980   4.615 -0.3092 -0.0706 -0.2530
    1DIPC   C4A20504   6.751   2.925   5.099 -0.0695 -0.1659 -0.1031
    1DIPC   C1B20505   6.640   2.037   4.551  0.2790 -0.0296  0.0846
    1DIPC   D2B20506   6.750   1.929   4.966 -0.0850 -0.0109 -0.0517
    1DIPC   D3B20507   6.728   1.914   5.481 -0.4139 -0.1499  0.1752
    1DIPC   C4B20508   6.557   2.289   5.682 -0.1014 -0.2705  0.0906
    1DIPC   NC320509   1.068   7.162   2.630  0.0439 -0.3471  0.0507
    1DIPC   PO420510   0.997   7.612   2.844  0.1462  0.0680 -0.0683
    1DIPC   GL120511   0.930   7.595   3.281 -0.2569  0.5168  0.1221
    1DIPC   GL220512   1.020   7.844   3.313 -0.1990  0.0580 -0.3568
    1DIPC   C1A20513   0.814   7.620   3.695 -0.2413  0.1365 -0.1113
    1DIPC   D2A20514   0.429   7.653   3.913  0.1956 -0.0682  0.1497
    1DIPC   D3A20515   0.594   7.749   4.212 -0.1959  0.0476  0.1380
    1DIPC   C4A20516   0.764   8.120   4.495  0.0920  0.2148  0.1355
    1DIPC   C1B20517   1.268   7.866   3.703 -0.4259  0.0024  0.0320
    1DIPC   D2B20518   1.290   7.530   4.021  0.0768  0.1910 -0.0903
    1DIPC   D3B20519   1.450   7.860   4.381 -0.2072 -0.2407  0.1377
    1DIPC   C4B20520   1.588   7.663   4.717  0.0063  0.1132  0.0002
    1DIPC   NC320521  18.484   5.592   2.369 -0.0596 -0.2043 -0.0146
    1DIPC   PO420522  18.789   5.779   2.579 -0.0086 -0.1032 -0.0281
    1DIPC   GL120523  18.950   5.847   2.964  0.3254 -0.1467 -0.0683
    1DIPC   GL220524  18.962   5.535   3.208 -0.0584 -0.2236 -0.2090
    1DIPC   C1A20525  18.801   6.075   3.357  0.0953 -0.0182  0.1026
    1DIPC   D2A20526  18.629   6.271   3.773  0.2376 -0.0117 -0.1255
    1DIPC   D3A20527  18.412   6.451   4.021  0.3168 -0.1961  0.1072
    1DIPC   C4A20528  18.210   6.401   4.403  0.1516 -0.2960 -0.0194
    1DIPC   C1B20529  19.077   5.240   3.528 -0.0968  0.0266 -0.0429
    1DIPC   D2B20530  19.379   5.279   3.797  0.0566  0.1563 -0.1152
    1DIPC   D3B20531  19.556   5.716   3.828 -0.5149 -0.1086 -0.1311
    1DIPC   C4B20532  19.586   6.130   3.834 -0.1904  0.2478  0.0955
    1DIPC   NC320533  25.115  23.233   2.717  0.1036  0.1399 -0.0111
    1DIPC   PO420534  25.337  23.528   2.432  0.1247  0.0619 -0.0703
    1DIPC   GL120535  25.468  23.510   2.876  0.0293 -0.0609  0.2201
    1DIPC   GL220536  25.251  23.383   3.144 -0.0940 -0.1274 -0.0371
    1DIPC   C1A20537  25.795  23.501   3.151  0.1252 -0.0125  0.2707
    1DIPC   D2A20538  25.885  23.472   3.546  0.0107 -0.1463 -0.1435
    1DIPC   D3A20539  25.603  23.775   3.515 -0.1090 -0.2687 -0.4775
    1DIPC   C4A20540  25.353  23.968   3.076 -0.0596 -0.4150 -0.0301
    1DIPC   C1B20541  25.074  23.561   3.501  0.0356 -0.0087 -0.0017
    1DIPC   D2B20542  24.874  23.408   3.797  0.0726 -0.0274  0.0538
    1DIPC   D3B20543  24.463  23.122   3.669 -0.0671 -0.0023 -0.1113
    1DIPC   C4B20544  24.249  22.859   3.854  0.1984 -0.0325 -0.1432
    1DIPC   NC320545  15.332   3.855   2.377  0.1491  0.0590 -0.0789
    1DIPC   PO420546  14.963   4.018   2.734  0.1355  0.0040 -0.0406
    1DIPC   GL120547  15.038   4.045   3.219  0.0441 -0.1238 -0.0157
    1DIPC   GL220548  15.016   4.341   3.335  0.0370 -0.0497 -0.0253
    1DIPC   C1A20549  15.035   3.927   3.619 -0.1004  0.1301 -0.2358
    1DIPC   D2A20550  14.985   4.059   4.050  0.0094 -0.3279  0.0609
    1DIPC   D3A20551  15.324   4.267   4.245  0.0016 -0.1734  0.0447
    1DIPC   C4A20552  15.370   4.428   4.669 -0.5294  0.1396  0.1373
    1DIPC   C1B20553  14.930   4.588   3.617  0.0501 -0.0986 -0.0985
    1DIPC   D2B20554  14.937   4.974   3.783  0.2965 -0.2188 -0.1177
    1DIPC   D3B20555  14.946   5.366   4.072  0.0288  0.1782  0.1396
    1DIPC   C4B20556  14.649   5.698   4.111  0.1808  0.0313 -0.0561
    1DIPC   NC320557  17.626  18.015   2.485 -0.1678  0.3852  0.0485
    1DIPC   PO420558  17.123  18.000   2.469 -0.1274 -0.2712  0.1247
    1DIPC   GL120559  17.050  18.105   2.956 -0.2087 -0.1035 -0.2450
    1DIPC   GL220560  17.211  18.285   3.188  0.0850  0.0176  0.1108
    1DIPC   C1A20561  16.799  17.946   3.444 -0.0398  0.0546  0.1543
    1DIPC   D2A20562  16.758  17.809   3.875 -0.2103  0.2527  0.1994
    1DIPC   D3A20563  17.008  17.911   4.208 -0.1329 -0.1459 -0.1384
    1DIPC   C4A20564  17.412  17.704   4.101 -0.0213 -0.1561 -0.2541
    1DIPC   C1B20565  17.585  18.589   3.199 -0.0338  0.0447 -0.1223
    1DIPC   D2B20566  17.612  19.043   3.109  0.1646 -0.0591 -0.0885
    1DIPC   D3B20567  17.764  19.322   3.541 -0.1514 -0.1429  0.1584
    1DIPC   C4B20568  18.113  19.480   3.556  0.0796 -0.1127 -0.0062
    1DIPC   NC320569  21.452  16.404   1.954 -0.1297  0.1885  0.0818
    1DIPC   PO420570  21.303  16.698   2.110 -0.1823  0.2349 -0.2759
    1DIPC   GL120571  21.215  16.656   2.519 -0.1787 -0.0126  0.1609
    1DIPC   GL220572  21.249  16.878   2.773 -0.0597  0.0231 -0.0152
    1DIPC   C1A20573  21.117  16.453   2.983  0.0986 -0.0673 -0.0009
    1DIPC   D2A20574  20.989  16.724   3.391 -0.0752 -0.1283  0.4063
    1DIPC   D3A20575  21.061  16.384   3.666 -0.2363  0.1975 -0.1191
    1DIPC   C4A20576  21.193  16.607   3.956  0.0367  0.0370  0.1148
    1DIPC   C1B20577  21.391  17.119   3.148 -0.1172  0.0100  0.1840
    1DIPC   D2B20578  21.383  17.481   3.458  0.0634  0.0734 -0.0576
    1DIPC   D3B20579  21.716  17.228   3.535  0.2766  0.2095 -0.0348
    1DIPC   C4B20580  21.608  16.802   3.549 -0.3110  0.1410 -0.0417
    1DIPC   NC320581  24.057  11.385   2.116  0.1591  0.1172  0.0195
    1DIPC   PO420582  23.621  11.351   1.857  0.4598 -0.1976 -0.1919
    1DIPC   GL120583  23.411  11.349   2.237 -0.1277 -0.1089  0.4859
    1DIPC   GL220584  23.321  11.575   2.446  0.0610  0.2289  0.3599
    1DIPC   C1A20585  23.395  11.028   2.501 -0.0030 -0.0155  0.3303
    1DIPC   D2A20586  23.152  10.944   2.652 -0.1498 -0.1084  0.1177
    1DIPC   D3A20587  22.868  11.348   2.628 -0.2073  0.0026  0.1414
    1DIPC   C4A20588  22.611  11.390   2.922  0.0521  0.2017  0.1783
    1DIPC   C1B20589  23.398  11.718   2.859  0.1864  0.4554 -0.2844
    1DIPC   D2B20590  23.561  11.872   3.280  0.1590  0.2468  0.0399
    1DIPC   D3B20591  23.714  12.163   3.187 -0.2029  0.1694 -0.0260
    1DIPC   C4B20592  24.145  12.308   3.291 -0.2454  0.1292  0.0743
    1DIPC   NC320593   5.162  29.257   3.538  0.0065 -0.0489 -0.1329
    1DIPC   PO420594   4.697  29.094   3.519  0.1774  0.0723 -0.1570
    1DIPC   GL120595   4.575  28.934   3.870 -0.0381  0.2305 -0.0731
    1DIPC   GL220596   4.711  28.558   3.873 -0.0433 -0.1404  0.2236
    1DIPC   C1A20597   4.403  29.064   4.266  0.2840 -0.0100 -0.0142
    1DIPC   D2A20598   4.150  29.169   4.668  0.1501 -0.0581  0.1057
    1DIPC   D3A20599   4.218  29.009   5.116 -0.1519 -0.0661  0.0559
    1DIPC   C4A20600   4.499  29.128   5.317  0.0962 -0.1104  0.1868
    1DIPC   C1B20601   4.731  28.587   4.288  0.0418 -0.0892  0.0199
    1DIPC   D2B20602   4.650  28.821   4.678 -0.0996 -0.1223  0.1035
    1DIPC   D3B20603   4.638  28.673   5.013 -0.1626  0.4145 -0.3795
    1DIPC   C4B20604   4.561  28.633   5.378  0.1035  0.2918  0.1760
    1DIPC   NC320605   9.998  17.546   2.321 -0.0005  0.3818 -0.0637
    1DIPC   PO420606  10.214  17.674   2.661 -0.0985  0.0985 -0.0616
    1DIPC   GL120607  10.346  17.765   3.102 -0.1023 -0.0404  0.1470
    1DIPC   GL220608  10.243  18.031   3.123 -0.0731  0.2398  0.0413
    1DIPC   C1A20609  10.241  17.916   3.579 -0.5235 -0.1003 -0.0615
    1DIPC   D2A20610  10.104  17.960   3.982  0.2585 -0.0070  0.1829
    1DIPC   D3A20611  10.000  17.633   4.029 -0.0689 -0.1931  0.3266
    1DIPC   C4A20612  10.140  17.476   4.452  0.1377 -0.2467  0.0690
    1DIPC   C1B20613   9.803  17.817   3.104 -0.0202 -0.1188 -0.1619
    1DIPC   D2B20614   9.696  17.463   3.251  0.1338  0.1700  0.0592
    1DIPC   D3B20615  10.070  17.469   3.510  0.0723  0.1714  0.0331
    1DIPC   C4B20616  10.281  17.243   3.838  0.1240  0.0504  0.2756
    1DIPC   NC320617   9.202  28.734   2.538  0.3550  0.2158  0.1436
    1DIPC   PO420618   9.091  28.539   3.020  0.1234  0.1896  0.2021
    1DIPC   GL120619   9.152  28.514   3.466  0.2540 -0.2333 -0.2790
    1DIPC   GL220620   9.309  28.758   3.719  0.1236  0.2939 -0.2586
    1DIPC   C1A20621   8.975  28.328   3.894  0.0318 -0.2764 -0.0577
    1DIPC   D2A20622   8.927  28.466   4.348  0.4557 -0.0265  0.1436
    1DIPC   D3A20623   8.976  28.082   4.505  0.0676  0.3197  0.0268
    1DIPC   C4A20624   8.635  27.864   4.663 -0.0701 -0.2182  0.0881
    1DIPC   C1B20625   9.163  28.845   4.060  0.0430  0.0226 -0.3005
    1DIPC   D2B20626   9.073  28.888   4.543 -0.0779 -0.1915 -0.4026
    1DIPC   D3B20627   9.011  28.570   4.967  0.3325 -0.3059  0.0938
    1DIPC   C4B20628   9.378  28.598   5.212  0.0315  0.3644 -0.2653
    1DIPC   NC320629   1.216  25.617   3.169  0.2120 -0.3255 -0.2948
    1DIPC   PO420630   1.613  25.786   3.229 -0.2171 -0.0294  0.2482
    1DIPC   GL120631   1.487  25.571   3.556 -0.0578 -0.3209 -0.0101
    1DIPC   GL220632   1.456  25.812   3.746  0.1439 -0.2316 -0.0877
    1DIPC   C1A20633   1.756  25.267   3.620  0.2611 -0.0955  0.1440
    1DIPC   D2A20634   1.853  24.837   3.656  0.0308 -0.0023  0.2353
    1DIPC   D3A20635   1.618  24.584   3.394  0.1617 -0.0802  0.2880
    1DIPC   C4A20636   1.753  24.109   3.349 -0.0147  0.1772  0.0234
    1DIPC   C1B20637   1.177  25.921   4.111 -0.2371 -0.2267 -0.0885
    1DIPC   D2B20638   1.018  26.158   4.364 -0.1526  0.2719  0.1104
    1DIPC   D3B20639   1.150  25.756   4.586  0.0805  0.0859 -0.0880
    1DIPC   C4B20640   1.125  25.268   4.489  0.0420  0.0335  0.0267
    1DIPC   NC320641  17.734   5.836   2.407 -0.2225 -0.2016  0.2377
    1DIPC   PO420642  18.101   6.227   2.296  0.2193 -0.3874  0.3621
    1DIPC   GL120643  18.164   6.423   2.690 -0.0143 -0.1755 -0.0434
    1DIPC   GL220644  18.187   6.685   2.558 -0.0523  0.2752  0.0048
    1DIPC   C1A20645  18.021   6.628   3.066 -0.0653  0.1553  0.3689
    1DIPC   D2A20646  17.764   6.862   3.258 -0.0147 -0.0886  0.2310
    1DIPC   D3A20647  17.948   7.324   3.091 -0.3457 -0.1045  0.1136
    1DIPC   C4A20648  17.881   7.381   2.677 -0.0795  0.0150 -0.1225
    1DIPC   C1B20649  18.216   6.995   2.843  0.1479 -0.2689  0.4073
    1DIPC   D2B20650  18.512   7.230   2.974 -0.0746  0.0250 -0.0611
    1DIPC   D3B20651  18.716   7.004   3.223 -0.0071 -0.1278  0.1041
    1DIPC   C4B20652  18.689   6.756   3.633 -0.0631  0.1722  0.1865
    1DIPC   NC320653   1.470   1.814   3.791 -0.0830  0.0632 -0.1203
    1DIPC   PO420654   1.260   2.162   3.934  0.2321 -0.0900 -0.0920
    1DIPC   GL120655   1.576   2.055   4.312 -0.0049  0.0035  0.1752
    1DIPC   GL220656   1.740   1.822   4.359 -0.1261  0.0240 -0.0641
    1DIPC   C1A20657   1.670   2.221   4.651  0.4603  0.0958 -0.0381
    1DIPC   D2A20658   1.495   2.269   5.051 -0.0233  0.0931  0.1032
    1DIPC   D3A20659   1.186   2.142   4.808  0.1807 -0.0442  0.3048
    1DIPC   C4A20660   0.900   2.343   5.071  0.3533 -0.1341  0.2029
    1DIPC   C1B20661   2.137   1.890   4.687  0.0109  0.1456  0.0101
    1DIPC   D2B20662   2.479   2.017   4.948  0.0644  0.3169 -0.1987
    1DIPC   D3B20663   2.883   1.664   5.086 -0.1441 -0.2203  0.0204
    1DIPC   C4B20664   2.711   1.489   5.460 -0.0360  0.2898 -0.2653
    1DIPC   NC320665  26.235   6.806   3.055 -0.0635  0.3414 -0.1795
    1DIPC   PO420666  26.248   6.437   3.217 -0.1745  0.0720  0.0139
    1DIPC   GL120667  26.200   6.505   3.735 -0.1994 -0.0437  0.0310
    1DIPC   GL220668  26.406   6.375   3.925 -0.2428  0.1252  0.0886
    1DIPC   C1A20669  26.312   6.914   4.013 -0.2114 -0.4010  0.2033
    1DIPC   D2A20670  26.685   7.163   4.152 -0.1860 -0.1167 -0.1707
    1DIPC   D3A20671  26.462   7.318   4.534  0.0380  0.0939  0.2482
    1DIPC   C4A20672  26.220   7.613   4.423 -0.2512 -0.2269 -0.0824
    1DIPC   C1B20673  26.045   6.393   4.163  0.0178  0.0882  0.4017
    1DIPC   D2B20674  25.630   6.504   4.029 -0.3386 -0.0065 -0.0610
    1DIPC   D3B20675  25.354   6.790   4.412 -0.0912  0.1249 -0.0159
    1DIPC   C4B20676  25.192   7.016   4.671 -0.0844  0.0046 -0.4039
    1DIPC   NC320677   4.733   6.331   2.347 -0.1682  0.0837 -0.1713
    1DIPC   PO420678   4.830   6.640   2.722 -0.0377 -0.2019 -0.1518
    1DIPC   GL120679   4.767   6.892   3.140  0.2023  0.3397  0.0736
    1DIPC   GL220680   4.997   6.932   3.359 -0.0886 -0.0364 -0.0108
    1DIPC   C1A20681   4.648   7.325   3.189 -0.0239 -0.2243 -0.1530
    1DIPC   D2A20682   4.303   7.428   3.312  0.1931 -0.1744  0.3512
    1DIPC   D3A20683   4.480   7.670   2.887  0.3115 -0.2162 -0.2827
    1DIPC   C4A20684   4.430   7.936   3.177  0.1685  0.1419  0.3774
    1DIPC   C1B20685   4.949   7.178   3.555 -0.3556 -0.4366 -0.1004
    1DIPC   D2B20686   4.690   7.270   3.920 -0.2622 -0.2435  0.3005
    1DIPC   D3B20687   4.639   7.200   4.307 -0.1256 -0.1021 -0.2962
    1DIPC   C4B20688   4.549   6.823   4.478 -0.2035 -0.0587  0.2654
    1DIPC   NC320689  17.052  27.491   3.074  0.2061  0.0217  0.0581
    1DIPC   PO420690  17.028  26.998   3.127  0.1337  0.0893  0.1033
    1DIPC   GL120691  17.152  26.743   3.430  0.0596 -0.0570  0.1325
    1DIPC   GL220692  17.153  26.360   3.480  0.2911 -0.1147 -0.3893
    1DIPC   C1A20693  17.289  26.907   3.893 -0.1959  0.0546 -0.0786
    1DIPC   D2A20694  17.193  27.281   4.075  0.1077  0.1461  0.2378
    1DIPC   D3A20695  17.099  27.280   4.465 -0.0700 -0.1479 -0.1944
    1DIPC   C4A20696  16.842  27.631   4.779 -0.0820  0.1394  0.0896
    1DIPC   C1B20697  17.451  26.409   3.755  0.2307  0.1562  0.0904
    1DIPC   D2B20698  17.731  26.592   4.052 -0.3039  0.0880  0.0230
    1DIPC   D3B20699  17.580  26.570   4.581  0.0452 -0.0944  0.0440
    1DIPC   C4B20700  17.297  26.340   4.672 -0.2141 -0.0246 -0.1321
    1DIPC   NC320701   6.451  18.262   1.501  0.0844  0.1748 -0.3734
    1DIPC   PO420702   6.014  18.277   1.581  0.0392  0.2382 -0.2277
    1DIPC   GL120703   6.100  18.366   1.971 -0.0030 -0.0982  0.2874
    1DIPC   GL220704   6.392  18.452   1.948  0.0122  0.1525 -0.0820
    1DIPC   C1A20705   6.097  18.575   2.334 -0.2013  0.0067 -0.1384
    1DIPC   D2A20706   6.047  18.941   2.626 -0.2147  0.0840 -0.0551
    1DIPC   D3A20707   5.941  18.812   3.008 -0.2847 -0.2504  0.1002
    1DIPC   C4A20708   5.527  18.733   3.099  0.0538 -0.0543  0.1359
    1DIPC   C1B20709   6.508  18.331   2.344 -0.2315 -0.1979 -0.1783
    1DIPC   D2B20710   6.396  18.566   2.747  0.2792  0.3057 -0.1038
    1DIPC   D3B20711   6.614  18.275   2.982  0.3883 -0.1869  0.1876
    1DIPC   C4B20712   6.490  18.215   3.403  0.2057 -0.2082 -0.0185
    1DIPC   NC320713  13.374  26.497   2.702  0.2896 -0.2934 -0.3963
    1DIPC   PO420714  12.913  26.442   2.777  0.2635 -0.0937 -0.3555
    1DIPC   GL120715  12.784  26.154   3.199 -0.2143  0.2869 -0.0621
    1DIPC   GL220716  12.597  25.811   3.273  0.0592 -0.0854 -0.1645
    1DIPC   C1A20717  12.698  26.366   3.601 -0.0056  0.3759 -0.0131
    1DIPC   D2A20718  13.011  26.534   3.881 -0.1272  0.2701 -0.0276
    1DIPC   D3A20719  13.099  26.508   4.410  0.1683  0.0062 -0.1917
    1DIPC   C4A20720  12.806  26.197   4.604 -0.0174  0.0712  0.0885
    1DIPC   C1B20721  12.758  25.809   3.696  0.0572  0.1737 -0.3446
    1DIPC   D2B20722  13.147  26.031   3.794 -0.1948 -0.0926 -0.0258
    1DIPC   D3B20723  13.215  25.920   4.227 -0.0244 -0.0173  0.0036
    1DIPC   C4B20724  12.932  25.654   4.277 -0.1130 -0.0868 -0.2498
    1DIPC   NC320725  29.393   9.112   2.494  0.3753 -0.0830 -0.0394
    1DIPC   PO420726  29.502   8.719   2.766  0.0544 -0.0907  0.1269
    1DIPC   GL120727  29.519   8.446   3.110 -0.0682  0.0261  0.2414
    1DIPC   GL220728  29.389   8.535   3.418  0.1716  0.2808  0.0652
    1DIPC   C1A20729  29.851   8.287   3.437 -0.0056  0.0215  0.0517
    1DIPC   D2A20730  30.244   8.472   3.502  0.0117 -0.0745 -0.0916
    1DIPC   D3A20731  30.265   8.419   3.892 -0.1270 -0.0206  0.1386
    1DIPC   C4A20732  30.148   8.826   4.214  0.4909  0.1032 -0.0573
    1DIPC   C1B20733  29.202   8.532   3.834 -0.2406  0.4707 -0.1332
    1DIPC   D2B20734  28.915   8.892   3.859 -0.0425 -0.1409  0.0067
    1DIPC   D3B20735  28.996   8.796   4.261 -0.1850  0.0708  0.2396
    1DIPC   C4B20736  28.677   8.694   4.491 -0.2531  0.0280 -0.3545
    1DIPC   NC320737  21.158  14.614   2.545  0.2596 -0.3063  0.1871
    1DIPC   PO420738  21.283  14.902   2.837  0.0238 -0.1017  0.0020
    1DIPC   GL120739  21.250  14.886   3.221  0.0608  0.1158 -0.2509
    1DIPC   GL220740  21.318  15.163   3.425  0.0281  0.0945  0.0345
    1DIPC   C1A20741  21.140  14.705   3.601  0.0278 -0.0214 -0.2814
    1DIPC   D2A20742  20.959  14.589   3.965 -0.0883  0.0537 -0.0510
    1DIPC   D3A20743  20.439  14.463   4.055  0.2462  0.1885 -0.1076
    1DIPC   C4A20744  20.419  14.102   4.326 -0.2022  0.0497 -0.0431
    1DIPC   C1B20745  21.595  15.319   3.768  0.0379  0.0349  0.0899
    1DIPC   D2B20746  21.552  15.341   4.211  0.2998  0.0257  0.1615
    1DIPC   D3B20747  21.605  14.937   4.263  0.1796 -0.0409  0.3265
    1DIPC   C4B20748  21.660  14.721   4.729  0.1073 -0.0623  0.2190
    1DIPC   NC320749  23.336  23.650   2.405 -0.3041 -0.0019 -0.1549
    1DIPC   PO420750  23.411  23.584   2.797 -0.1162 -0.0859  0.0392
    1DIPC   GL120751  23.596  23.351   3.109  0.0097 -0.1789  0.0723
    1DIPC   GL220752  23.507  22.973   3.219  0.0656  0.0600 -0.2322
    1DIPC   C1A20753  23.348  23.414   3.470 -0.2710  0.3064  0.0069
    1DIPC   D2A20754  23.331  23.270   3.877  0.0491  0.0498 -0.0632
    1DIPC   D3A20755  23.725  23.352   4.064 -0.1840 -0.0421  0.1381
    1DIPC   C4A20756  24.012  23.142   4.193  0.0635 -0.1107  0.0733
    1DIPC   C1B20757  23.126  22.941   3.245  0.1455  0.4068 -0.1781
    1DIPC   D2B20758  22.825  22.773   3.284 -0.1466  0.0591  0.0727
    1DIPC   D3B20759  22.821  22.582   3.670  0.5147 -0.2071 -0.2298
    1DIPC   C4B20760  22.942  22.698   4.148 -0.3211  0.0419 -0.1503
    1DIPC   NC320761  15.813  14.831   3.349 -0.0867  0.2516 -0.0768
    1DIPC   PO420762  16.260  14.736   3.472 -0.4002 -0.0746 -0.1751
    1DIPC   GL120763  16.533  15.042   3.756  0.1605  0.0179  0.1680
    1DIPC   GL220764  16.656  15.339   3.533  0.3868  0.0169  0.1303
    1DIPC   C1A20765  16.701  15.402   3.992 -0.1433  0.1778 -0.0740
    1DIPC   D2A20766  17.096  15.423   4.127  0.0183 -0.2943 -0.3701
    1DIPC   D3A20767  17.072  15.232   4.543 -0.0250 -0.1235 -0.0123
    1DIPC   C4A20768  16.811  15.283   4.878  0.0135 -0.0686  0.2835
    1DIPC   C1B20769  16.365  15.637   3.735  0.1423  0.1001 -0.0186
    1DIPC   D2B20770  16.221  15.709   4.130 -0.0202 -0.0579  0.0294
    1DIPC   D3B20771  16.378  15.555   4.509  0.0366  0.0712  0.0116
    1DIPC   C4B20772  16.764  15.656   4.521  0.2834  0.1116  0.1325
    1DIPC   NC320773  22.910  20.629   1.632  0.0718  0.0807 -0.0225
    1DIPC   PO420774  22.994  20.646   2.088 -0.0334 -0.0207 -0.1776
    1DIPC   GL120775  23.024  20.591   2.533 -0.1460  0.2431  0.1764
    1DIPC   GL220776  23.259  20.815   2.586 -0.0945 -0.0139 -0.0727
    1DIPC   C1A20777  22.965  20.288   2.894 -0.3181  0.1151  0.0468
    1DIPC   D2A20778  23.002  20.159   3.297 -0.0179 -0.0390  0.0192
    1DIPC   D3A20779  22.608  20.222   3.488 -0.1598  0.1462 -0.0067
    1DIPC   C4A20780  22.524  20.177   3.862  0.2425  0.2252  0.0052
    1DIPC   C1B20781  22.983  20.947   2.898 -0.1897 -0.2801  0.1354
    1DIPC   D2B20782  22.759  21.070   3.256 -0.3280  0.0519  0.5243
    1DIPC   D3B20783  22.998  20.643   3.486  0.1045 -0.1343  0.2271
    1DIPC   C4B20784  23.438  20.618   3.647  0.1548  0.0901 -0.3260
    1DIPC   NC320785  17.007  15.700   3.051 -0.3589 -0.3644  0.1373
    1DIPC   PO420786  17.101  15.419   2.707 -0.0294 -0.4022  0.1446
    1DIPC   GL120787  17.168  15.177   3.146  0.0519  0.1554  0.0334
    1DIPC   GL220788  17.273  14.872   3.288 -0.0140 -0.1537 -0.0956
    1DIPC   C1A20789  17.116  15.221   3.622 -0.4415 -0.3114  0.5130
    1DIPC   D2A20790  17.578  15.226   3.787  0.0219  0.0873 -0.2712
    1DIPC   D3A20791  17.827  15.516   3.663 -0.0051 -0.4252 -0.1696
    1DIPC   C4A20792  17.751  15.885   3.416  0.3449 -0.2254  0.3232
    1DIPC   C1B20793  17.177  14.736   3.749  0.2374  0.2404 -0.2642
    1DIPC   D2B20794  16.929  14.784   4.137  0.2489 -0.0915 -0.1176
    1DIPC   D3B20795  16.661  15.051   4.324  0.0217 -0.0822 -0.2253
    1DIPC   C4B20796  16.234  14.919   4.261 -0.0847 -0.1848  0.1425
    1DIPC   NC320797   5.973  10.295   2.502 -0.0696 -0.2648 -0.1533
    1DIPC   PO420798   5.719   9.951   2.529  0.1731 -0.1820 -0.0831
    1DIPC   GL120799   5.630  10.060   2.983  0.1218 -0.0865 -0.1133
    1DIPC   GL220800   5.289   9.865   3.036  0.0556  0.0664  0.1665
    1DIPC   C1A20801   5.670   9.908   3.389 -0.2002 -0.1610 -0.2284
    1DIPC   D2A20802   5.486   9.751   3.708 -0.2740  0.1147  0.0543
    1DIPC   D3A20803   5.902   9.912   3.878 -0.1006 -0.0471 -0.0417
    1DIPC   C4A20804   6.145  10.024   4.345  0.1654  0.0530 -0.1672
    1DIPC   C1B20805   5.131   9.933   3.442 -0.0974  0.0810  0.0103
    1DIPC   D2B20806   4.895   9.866   3.881  0.1691 -0.0898  0.1796
    1DIPC   D3B20807   5.126   9.985   4.237 -0.0503  0.3418  0.0154
    1DIPC   C4B20808   4.972  10.145   4.639  0.0744  0.2125  0.0331
    1DIPC   NC320809   8.615   3.648   2.574  0.2680 -0.1645 -0.1269
    1DIPC   PO420810   8.795   3.806   2.956  0.1709 -0.3055 -0.2646
    1DIPC   GL120811   9.078   3.687   3.283  0.0767 -0.3525 -0.2128
    1DIPC   GL220812   9.110   3.370   3.361  0.2582  0.1057  0.0075
    1DIPC   C1A20813   9.310   3.802   3.659 -0.0086  0.4756 -0.0154
    1DIPC   D2A20814   9.544   3.633   3.997  0.0414 -0.1445 -0.1867
    1DIPC   D3A20815   9.343   3.957   4.251  0.0067 -0.2423  0.0071
    1DIPC   C4A20816   9.223   4.027   4.748  0.0022  0.0232 -0.1447
    1DIPC   C1B20817   9.241   3.272   3.832 -0.1525 -0.0427  0.3741
    1DIPC   D2B20818   9.566   3.066   4.008 -0.0653 -0.5536 -0.0791
    1DIPC   D3B20819   9.398   3.182   4.342  0.0442  0.0346  0.2737
    1DIPC   C4B20820   9.198   2.845   4.631  0.1066 -0.1012  0.1610
    1DIPC   NC320821  21.501   9.266   1.407  0.2812 -0.0597  0.0408
    1DIPC   PO420822  21.645   9.356   1.821 -0.0519  0.1105 -0.0298
    1DIPC   GL120823  21.714   9.246   2.319 -0.0860 -0.1735 -0.1646
    1DIPC   GL220824  21.592   8.952   2.449  0.0685 -0.0202  0.4120
    1DIPC   C1A20825  21.724   9.559   2.664  0.1815  0.0983 -0.0694
    1DIPC   D2A20826  21.900   9.827   2.992 -0.1832  0.2736 -0.1657
    1DIPC   D3A20827  22.066   9.934   3.415 -0.0228  0.0634 -0.1745
    1DIPC   C4A20828  22.456  10.145   3.512  0.3346 -0.1746 -0.3133
    1DIPC   C1B20829  21.464   9.135   2.858 -0.1643 -0.3183  0.1353
    1DIPC   D2B20830  21.225   9.326   3.172 -0.1653 -0.2730  0.4445
    1DIPC   D3B20831  21.168   9.506   2.706 -0.0142  0.1751  0.1299
    1DIPC   C4B20832  20.835   9.308   2.526 -0.0098  0.0339 -0.0004
    1DIPC   NC320833   8.732  21.972   2.337  0.3197  0.0119 -0.2090
    1DIPC   PO420834   8.349  22.104   2.342 -0.2395 -0.4488  0.1270
    1DIPC   GL120835   8.031  22.069   2.733  0.1558 -0.2768  0.0463
    1DIPC   GL220836   7.800  21.678   2.692 -0.3070 -0.0964 -0.2968
    1DIPC   C1A20837   7.734  22.103   3.105  0.1543 -0.0742  0.0644
    1DIPC   D2A20838   7.460  22.023   3.504 -0.0650 -0.0359 -0.0176
    1DIPC   D3A20839   7.524  22.207   3.907 -0.0459 -0.0604  0.2263
    1DIPC   C4A20840   7.713  21.914   4.219 -0.1529 -0.1240  0.2085
    1DIPC   C1B20841   7.791  21.508   3.194 -0.0745 -0.2367  0.3415
    1DIPC   D2B20842   7.611  21.515   3.496  0.1615  0.1633 -0.1624
    1DIPC   D3B20843   7.436  21.670   3.884  0.2385  0.0961  0.0694
    1DIPC   C4B20844   7.422  21.332   4.057 -0.2988  0.0208 -0.1455
    1DIPC   NC320845  25.755   1.623   3.786 -0.2006 -0.0908 -0.0977
    1DIPC   PO420846  25.313   1.691   3.555  0.1867  0.0740 -0.1238
    1DIPC   GL120847  25.143   1.445   3.888  0.1764  0.1705 -0.4102
    1DIPC   GL220848  24.702   1.464   3.878 -0.1361 -0.1946 -0.1434
    1DIPC   C1A20849  25.015   1.476   4.278 -0.0630  0.2156  0.1863
    1DIPC   D2A20850  24.578   1.411   4.446  0.2117 -0.0199  0.0091
    1DIPC   D3A20851  24.471   1.347   4.829  0.1186 -0.1409  0.1590
    1DIPC   C4A20852  24.419   0.954   4.899  0.0243 -0.3720 -0.0026
    1DIPC   C1B20853  24.799   1.062   4.116  0.0404  0.0337 -0.3009
    1DIPC   D2B20854  24.839   0.999   4.591  0.0102 -0.0708 -0.0657
    1DIPC   D3B20855  24.925   1.068   5.066  0.1096 -0.0133  0.0117
    1DIPC   C4B20856  24.597   1.167   5.285  0.1093  0.2680 -0.1875
    1DIPC   NC320857  27.857  28.011   3.319 -0.0005  0.1470  0.5670
    1DIPC   PO420858  27.644  28.230   3.661 -0.0864 -0.1403  0.3115
    1DIPC   GL120859  27.864  28.336   4.029  0.2428 -0.3262  0.0204
    1DIPC   GL220860  27.635  28.585   4.138 -0.0365  0.1192  0.0304
    1DIPC   C1A20861  27.834  28.054   4.319  0.0163  0.1986 -0.0607
    1DIPC   D2A20862  27.772  27.971   4.722  0.4398 -0.2413  0.4659
    1DIPC   D3A20863  27.376  27.677   4.912  0.0137 -0.4235  0.0467
    1DIPC   C4A20864  27.388  27.580   5.397  0.3187  0.2697  0.2039
    1DIPC   C1B20865  27.681  28.471   4.556  0.0370 -0.3003  0.0300
    1DIPC   D2B20866  27.844  28.382   5.024  0.2428 -0.0374 -0.0444
    1DIPC   D3B20867  27.500  28.736   5.063  0.1348  0.0720 -0.1408
    1DIPC   C4B20868  27.606  29.085   5.493  0.2545  0.1593 -0.0783
    1DIPC   NC320869   9.511   7.834   2.647  0.2247  0.1348  0.1341
    1DIPC   PO420870   9.223   7.521   3.009  0.3524  0.3693 -0.1252
    1DIPC   GL120871   8.972   7.444   3.512  0.1446  0.2094  0.2460
    1DIPC   GL220872   8.837   7.717   3.518 -0.0757  0.2850 -0.0401
    1DIPC   C1A20873   9.131   7.511   3.919 -0.0257  0.0194 -0.1078
    1DIPC   D2A20874   9.358   7.646   4.196  0.2395 -0.0563  0.0372
    1DIPC   D3A20875   9.190   7.494   4.461  0.0277 -0.3097  0.0275
    1DIPC   C4A20876   8.786   7.458   4.719  0.2043  0.0330  0.2326
    1DIPC   C1B20877   8.783   7.838   3.951 -0.0146 -0.2157  0.0010
    1DIPC   D2B20878   8.776   7.784   4.295 -0.0613  0.1085  0.3802
    1DIPC   D3B20879   8.399   7.873   4.660  0.2277  0.1060  0.3985
    1DIPC   C4B20880   8.247   8.276   4.846 -0.0075 -0.2021 -0.3681
    1DIPC   NC320881   7.852   5.915   3.312 -0.1915 -0.2160 -0.0593
    1DIPC   PO420882   7.621   6.318   3.213  0.0460  0.0363 -0.0989
    1DIPC   GL120883   7.911   6.301   3.633 -0.2337  0.0675 -0.0237
    1DIPC   GL220884   7.732   6.450   3.924 -0.0087 -0.1644  0.1314
    1DIPC   C1A20885   8.098   6.154   4.032 -0.2143  0.3535 -0.3749
    1DIPC   D2A20886   7.916   6.361   4.377  0.1231 -0.0142 -0.4268
    1DIPC   D3A20887   7.561   6.536   4.437 -0.0079  0.1905 -0.2904
    1DIPC   C4A20888   7.347   6.393   4.927  0.2860 -0.0575 -0.2206
    1DIPC   C1B20889   7.672   6.876   3.797  0.0485 -0.1661 -0.2649
    1DIPC   D2B20890   7.553   7.254   3.587 -0.1347  0.1241  0.1172
    1DIPC   D3B20891   7.980   7.242   3.524 -0.1022 -0.0967  0.0826
    1DIPC   C4B20892   8.087   7.211   3.896  0.0316 -0.0464 -0.3158
    1DIPC   NC320893  21.811  22.396   1.502  0.2515 -0.0832  0.0114
    1DIPC   PO420894  21.923  22.102   1.855 -0.0252  0.0239 -0.0696
    1DIPC   GL120895  21.909  22.016   2.308 -0.2084 -0.1941 -0.1736
    1DIPC   GL220896  21.919  22.291   2.448 -0.1680 -0.0191  0.2425
    1DIPC   C1A20897  21.974  21.786   2.692 -0.0046  0.0893  0.0942
    1DIPC   D2A20898  21.877  21.724   3.031  0.0291  0.0656 -0.0123
    1DIPC   D3A20899  21.596  21.394   2.903  0.3510 -0.1815 -0.2175
    1DIPC   C4A20900  21.242  21.394   2.661  0.0392  0.2447 -0.1994
    1DIPC   C1B20901  22.147  22.299   2.901  0.0781 -0.2178 -0.4073
    1DIPC   D2B20902  22.388  22.327   3.252 -0.0599  0.0625 -0.1912
    1DIPC   D3B20903  22.625  22.291   2.892 -0.2509  0.1483 -0.1938
    1DIPC   C4B20904  22.440  21.944   2.630  0.1260 -0.1428  0.2872
    1DIPC   NC320905   9.227  11.273   2.603  0.1498  0.2383  0.2330
    1DIPC   PO420906   9.152  10.792   2.665 -0.0220 -0.2327 -0.0203
    1DIPC   GL120907   9.246  10.944   3.076  0.0977  0.2511 -0.0394
    1DIPC   GL220908   9.046  11.226   3.078  0.0576  0.2437 -0.1946
    1DIPC   C1A20909   9.402  10.815   3.509  0.2715  0.0555 -0.0964
    1DIPC   D2A20910   9.512  10.756   3.939  0.0447  0.0732 -0.0119
    1DIPC   D3A20911   9.905  10.498   4.077  0.2488  0.1692 -0.1204
    1DIPC   C4A20912  10.219  10.423   3.802  0.1294 -0.0718 -0.1276
    1DIPC   C1B20913   8.946  11.090   3.457  0.1708 -0.2604 -0.3312
    1DIPC   D2B20914   9.073  10.910   3.832  0.0883 -0.0634  0.0111
    1DIPC   D3B20915   9.054  10.861   4.175 -0.0405  0.0061 -0.0758
    1DIPC   C4B20916   8.907  10.533   4.451 -0.1415  0.0340  0.0875
    1DIPC   NC320917  10.011   9.598   3.019 -0.1396 -0.0676 -0.0746
    1DIPC   PO420918  10.394   9.496   3.039  0.0020 -0.2977 -0.2662
    1DIPC   GL120919  10.497   9.468   3.363 -0.2135  0.0462 -0.1615
    1DIPC   GL220920  10.587   9.209   3.422  0.1987  0.1354  0.3174
    1DIPC   C1A20921  10.556   9.716   3.792  0.1905 -0.1032 -0.1748
    1DIPC   D2A20922  10.519  10.099   3.947 -0.1140 -0.2640 -0.2390
    1DIPC   D3A20923  10.955  10.043   3.956 -0.2679 -0.1483 -0.0470
    1DIPC   C4A20924  11.214  10.197   4.383 -0.0391 -0.2148  0.1723
    1DIPC   C1B20925  10.595   9.236   3.911 -0.0328  0.0081  0.1776
    1DIPC   D2B20926  10.423   9.467   4.266  0.0833  0.1396  0.0516
    1DIPC   D3B20927  10.377   9.261   4.703 -0.2366  0.0439 -0.0958
    1DIPC   C4B20928  10.339   8.838   4.729  0.1618  0.3081 -0.3024
    1DIPC   NC320929  14.666  14.831   2.974 -0.1404  0.3517  0.1600
    1DIPC   PO420930  15.001  14.793   3.361  0.2231  0.0399  0.0451
    1DIPC   GL120931  15.054  14.500   3.829 -0.2409  0.1146  0.1735
    1DIPC   GL220932  14.886  14.604   4.095  0.0619 -0.1317  0.1331
    1DIPC   C1A20933  15.318  14.396   4.263  0.3463 -0.0920 -0.1992
    1DIPC   D2A20934  15.650  14.237   4.540 -0.0302 -0.0050  0.0658
    1DIPC   D3A20935  15.351  14.202   4.705 -0.1543  0.0229 -0.2126
    1DIPC   C4A20936  14.851  14.217   4.524  0.2195 -0.1438 -0.0341
    1DIPC   C1B20937  15.099  14.794   4.429 -0.3796 -0.1143 -0.1470
    1DIPC   D2B20938  15.233  15.140   4.835  0.0346  0.0725 -0.1037
    1DIPC   D3B20939  15.227  14.812   5.020 -0.1151  0.1087 -0.2508
    1DIPC   C4B20940  15.577  14.600   5.005 -0.0446  0.0914  0.0742
    1DIPC   NC320941   2.588   6.210   2.633  0.0480 -0.0611  0.3003
    1DIPC   PO420942   3.015   6.481   2.690 -0.0151 -0.2997 -0.1998
    1DIPC   GL120943   3.107   6.320   3.163  0.1226  0.1636  0.0468
    1DIPC   GL220944   3.050   6.096   3.340 -0.1631 -0.0513  0.0487
    1DIPC   C1A20945   3.246   6.608   3.549 -0.0336  0.1090 -0.3204
    1DIPC   D2A20946   2.869   6.865   3.839 -0.2738  0.0292 -0.2694
    1DIPC   D3A20947   3.006   7.176   4.155  0.3394  0.2285 -0.0106
    1DIPC   C4A20948   3.401   7.289   4.137 -0.1280 -0.0885 -0.1516
    1DIPC   C1B20949   2.646   6.053   3.602  0.3302 -0.4025 -0.0717
    1DIPC   D2B20950   2.280   6.438   3.648 -0.0091 -0.0620 -0.2584
    1DIPC   D3B20951   2.378   6.221   4.027  0.1767 -0.0728 -0.1313
    1DIPC   C4B20952   2.062   6.004   4.271  0.0701 -0.0932  0.1122
    1DIPC   NC320953   6.548  11.089   2.400  0.2825  0.1420 -0.2353
    1DIPC   PO420954   6.271  10.777   2.586 -0.0903 -0.0709  0.0925
    1DIPC   GL120955   6.326  10.749   3.017 -0.0258  0.5146  0.0484
    1DIPC   GL220956   6.431  11.016   3.155  0.1214 -0.0489 -0.0812
    1DIPC   C1A20957   6.585  10.658   3.483  0.1672  0.1339 -0.0063
    1DIPC   D2A20958   6.903  10.602   3.695  0.0302 -0.0379  0.2627
    1DIPC   D3A20959   6.644  10.551   4.032  0.2472 -0.0389  0.1816
    1DIPC   C4A20960   6.808  10.466   4.430  0.0987  0.1791  0.1091
    1DIPC   C1B20961   6.250  11.093   3.514  0.0071  0.1737  0.2482
    1DIPC   D2B20962   6.433  10.960   3.897 -0.3862 -0.3760  0.0349
    1DIPC   D3B20963   6.848  11.040   3.934 -0.1046  0.0922 -0.0891
    1DIPC   C4B20964   7.154  10.873   4.253 -0.3191 -0.1255  0.0347
    1DIPC   NC320965  11.889  23.746   2.478  0.0582  0.2885  0.0292
    1DIPC   PO420966  11.581  24.018   2.267  0.0123 -0.0177 -0.0325
    1DIPC   GL120967  11.483  23.899   2.724 -0.0661  0.0860  0.1339
    1DIPC   GL220968  11.261  24.100   2.865 -0.0655  0.1061  0.1073
    1DIPC   C1A20969  11.621  23.775   3.185 -0.2463  0.0593  0.0117
    1DIPC   D2A20970  11.952  23.674   3.456  0.2226 -0.0260  0.3009
    1DIPC   D3A20971  11.909  23.348   3.684 -0.2085 -0.1181  0.2520
    1DIPC   C4A20972  12.121  22.899   3.698 -0.0901 -0.3571  0.3857
    1DIPC   C1B20973  11.007  23.721   2.896  0.1334 -0.0373 -0.4293
    1DIPC   D2B20974  10.640  23.802   2.819  0.0246  0.0055 -0.0529
    1DIPC   D3B20975  10.402  23.887   3.187 -0.0662  0.0194  0.2356
    1DIPC   C4B20976  10.580  23.853   3.574 -0.2681 -0.2478 -0.1161
    1DIPC   NC320977  24.025   7.126   2.776 -0.0386  0.0540  0.0450
    1DIPC   PO420978  24.237   6.869   2.882 -0.0577  0.3739  0.1822
    1DIPC   GL120979  24.124   7.073   3.331 -0.2185 -0.1274 -0.0286
    1DIPC   GL220980  24.416   6.994   3.488  0.3013  0.1389 -0.1296
    1DIPC   C1A20981  23.986   6.761   3.643  0.0809 -0.1946  0.0940
    1DIPC   D2A20982  24.119   6.324   3.755  0.0972 -0.1267 -0.1885
    1DIPC   D3A20983  23.738   6.511   4.032 -0.0931  0.0146  0.1427
    1DIPC   C4A20984  23.727   6.490   4.503  0.1079  0.0652 -0.0855
    1DIPC   C1B20985  24.734   7.240   3.345  0.1019 -0.0979 -0.2705
    1DIPC   D2B20986  25.140   7.142   3.398 -0.2390  0.1490 -0.0743
    1DIPC   D3B20987  24.897   7.177   3.805  0.0314 -0.0538 -0.1175
    1DIPC   C4B20988  24.902   6.911   4.117  0.0063 -0.0219 -0.0619
    1DIPC   NC320989  23.006   5.965   3.006 -0.2034  0.1092 -0.2505
    1DIPC   PO420990  22.851   6.285   3.118 -0.1557 -0.2242 -0.1625
    1DIPC   GL120991  22.489   6.447   3.389  0.3045  0.0416  0.0685
    1DIPC   GL220992  22.283   6.142   3.507  0.2330  0.0123 -0.1369
    1DIPC   C1A20993  22.387   6.550   3.798  0.3497  0.0433 -0.3075
    1DIPC   D2A20994  22.420   6.382   4.239  0.0477 -0.0350 -0.0335
    1DIPC   D3A20995  22.142   6.679   4.545  0.2713  0.0204  0.0026
    1DIPC   C4A20996  22.100   6.742   4.942  0.1636  0.4871 -0.0380
    1DIPC   C1B20997  21.887   6.274   3.813 -0.2054  0.2118 -0.2341
    1DIPC   D2B20998  21.501   6.239   3.713  0.1102 -0.0003 -0.2895
    1DIPC   D3B20999  21.406   6.065   4.131  0.0255 -0.1043  0.3689
    1DIPC   C4B21000  21.145   5.925   4.443 -0.1407  0.3280  0.2304
    1DIPC   NC321001  25.319  21.251   1.982 -0.0300 -0.0275  0.0927
    1DIPC   PO421002  25.567  21.081   2.247  0.0603 -0.0035 -0.2363
    1DIPC   GL121003  25.447  20.992   2.601  0.2027 -0.3321  0.1493
    1DIPC   GL221004  25.522  20.901   2.935  0.0250  0.0056  0.1024
    1DIPC   C1A21005  25.047  20.918   2.872  0.1363 -0.0236  0.0050
    1DIPC   D2A21006  24.665  20.779   2.804  0.2464 -0.0049 -0.0631
    1DIPC   D3A21007  24.693  20.895   3.238  0.0668 -0.2501 -0.1041
    1DIPC   C4A21008  24.886  20.835   3.581 -0.4618 -0.0551  0.3717
    1DIPC   C1B21009  25.662  20.632   3.063 -0.1092 -0.0806  0.0451
    1DIPC   D2B21010  25.728  20.519   3.577  0.1200 -0.1352  0.2382
    1DIPC   D3B21011  25.569  20.313   3.986  0.0822  0.2754 -0.0037
    1DIPC   C4B21012  25.712  20.443   4.350  0.0659  0.0651 -0.0005
    1DIPC   NC321013  13.151   8.441   2.991  0.0979 -0.1202 -0.1211
    1DIPC   PO421014  12.797   8.336   3.117  0.2045  0.1080 -0.0870
    1DIPC   GL121015  12.740   8.287   3.602  0.0405  0.0413  0.1730
    1DIPC   GL221016  12.550   8.608   3.617  0.2869 -0.3053 -0.1989
    1DIPC   C1A21017  12.915   8.343   4.008  0.2254 -0.0668  0.0680
    1DIPC   D2A21018  13.216   8.660   4.270 -0.1153 -0.2070 -0.3205
    1DIPC   D3A21019  13.580   8.528   4.502  0.0272 -0.3623  0.0811
    1DIPC   C4A21020  13.875   8.866   4.632 -0.3054 -0.0624 -0.1223
    1DIPC   C1B21021  12.682   8.861   4.021 -0.0987  0.1601 -0.0419
    1DIPC   D2B21022  13.052   9.114   4.002  0.1059  0.0955 -0.0587
    1DIPC   D3B21023  12.933   9.137   4.440  0.0031  0.0840 -0.2167
    1DIPC   C4B21024  12.542   8.927   4.531  0.1606 -0.0486 -0.0315
    1DIPC   NC321025  10.096   8.617   2.632  0.1444 -0.1398 -0.0197
    1DIPC   PO421026  10.021   8.699   3.064 -0.0493  0.2137  0.0242
    1DIPC   GL121027  10.157   8.904   3.422 -0.0978 -0.0671  0.0804
    1DIPC   GL221028  10.100   9.196   3.319  0.1165  0.1414  0.2175
    1DIPC   C1A21029  10.033   8.902   3.852 -0.0426  0.0325 -0.1318
    1DIPC   D2A21030   9.995   9.042   4.262  0.1594  0.2711  0.0009
    1DIPC   D3A21031   9.867   8.797   4.524  0.0659 -0.2484  0.1465
    1DIPC   C4A21032   9.553   8.820   4.782 -0.5948 -0.3064 -0.0168
    1DIPC   C1B21033  10.060   9.510   3.824 -0.3734  0.1496  0.3347
    1DIPC   D2B21034  10.121   9.886   4.063 -0.0590  0.3297  0.1027
    1DIPC   D3B21035   9.994  10.172   4.417  0.3424 -0.0920 -0.0630
    1DIPC   C4B21036   9.730  10.030   4.649  0.1922 -0.2117  0.1515
    1DIPC   NC321037  13.067   6.605   2.437 -0.1607 -0.0835  0.1897
    1DIPC   PO421038  13.085   7.077   2.571  0.2213 -0.1553  0.0150
    1DIPC   GL121039  13.001   6.835   2.913  0.4549  0.0612 -0.2753
    1DIPC   GL221040  12.742   7.077   3.152  0.0742  0.2809 -0.1492
    1DIPC   C1A21041  12.968   6.651   3.325 -0.1355 -0.2696 -0.1930
    1DIPC   D2A21042  13.002   6.855   3.720  0.4030 -0.2434 -0.2080
    1DIPC   D3A21043  13.163   7.094   4.032 -0.2010  0.0539 -0.0615
    1DIPC   C4A21044  13.354   7.145   4.397  0.0801 -0.1241 -0.0435
    1DIPC   C1B21045  12.541   6.866   3.516  0.1932 -0.0341 -0.0265
    1DIPC   D2B21046  12.393   6.568   3.847 -0.1573  0.1282 -0.2582
    1DIPC   D3B21047  12.697   6.654   4.118  0.0158  0.0638  0.3508
    1DIPC   C4B21048  13.182   6.642   4.190 -0.1134  0.2648  0.0921
    1DIPC   NC321049  18.394   1.180   2.169  0.2501  0.3169 -0.0491
    1DIPC   PO421050  18.304   0.953   2.567 -0.1847 -0.2384  0.0041
    1DIPC   GL121051  18.372   0.971   3.154 -0.1931  0.0047 -0.3138
    1DIPC   GL221052  18.637   1.326   3.164  0.0729 -0.2484  0.1313
    1DIPC   C1A21053  18.181   1.115   3.482 -0.1682 -0.3854  0.1391
    1DIPC   D2A21054  18.178   1.313   3.772  0.4109  0.0002 -0.1737
    1DIPC   D3A21055  18.362   1.395   4.082 -0.1469  0.4949 -0.0562
    1DIPC   C4A21056  18.505   1.032   4.349 -0.2646  0.1740  0.1543
    1DIPC   C1B21057  18.542   1.500   3.526 -0.0797  0.0686 -0.0225
    1DIPC   D2B21058  18.242   1.799   3.696 -0.0468  0.2133 -0.1658
    1DIPC   D3B21059  17.913   1.686   3.391  0.1441 -0.0623  0.2150
    1DIPC   C4B21060  17.577   2.030   3.463  0.1579  0.0203  0.0694
    1DIPC   NC321061  19.118   0.858   2.121  0.0706 -0.0098  0.0505
    1DIPC   PO421062  18.839   1.067   2.447  0.1184  0.3879  0.1158
    1DIPC   GL121063  18.870   0.953   2.921 -0.5788  0.4015  0.0061
    1DIPC   GL221064  19.178   1.046   3.134  0.0379  0.0058 -0.2530
    1DIPC   C1A21065  18.779   0.751   3.337  0.0909 -0.2303 -0.0219
    1DIPC   D2A21066  18.570   0.719   3.582  0.0962 -0.0483 -0.3734
    1DIPC   D3A21067  18.638   1.088   3.754 -0.0341  0.2019  0.2451
    1DIPC   C4A21068  19.032   1.174   3.774 -0.2410 -0.1177  0.2440
    1DIPC   C1B21069  19.192   1.374   3.327 -0.3604 -0.4096  0.2185
    1DIPC   D2B21070  19.131   1.716   3.697  0.0883  0.1739  0.2796
    1DIPC   D3B21071  19.403   1.471   3.976 -0.3037 -0.0510 -0.0465
    1DIPC   C4B21072  19.339   1.042   4.276  0.1518  0.0265  0.1046
    1DIPC   NC321073  26.167  23.048   2.435  0.0789  0.0705 -0.0119
    1DIPC   PO421074  26.691  23.050   2.660  0.0612 -0.0316 -0.0974
    1DIPC   GL121075  26.678  23.066   3.009 -0.2856  0.1104 -0.0310
    1DIPC   GL221076  26.702  23.418   3.012 -0.0061 -0.1170 -0.2795
    1DIPC   C1A21077  27.004  22.874   3.228 -0.1570  0.1411  0.0116
    1DIPC   D2A21078  27.380  22.899   3.410 -0.0478 -0.1025  0.0700
    1DIPC   D3A21079  27.498  22.845   3.887  0.0980  0.0510 -0.0742
    1DIPC   C4A21080  28.000  22.623   4.051  0.1601 -0.2277 -0.3055
    1DIPC   C1B21081  26.642  23.264   3.498 -0.0983  0.3648  0.1235
    1DIPC   D2B21082  26.292  23.264   3.743 -0.0588 -0.1953 -0.1250
    1DIPC   D3B21083  26.457  22.986   4.028  0.0948  0.0207  0.1230
    1DIPC   C4B21084  26.419  22.942   4.442  0.3260  0.4829 -0.0582
    1DIPC   NC321085  22.653  29.742   3.425  0.0749 -0.3728  0.0878
    1DIPC   PO421086  22.471  30.107   3.277 -0.1427  0.2551 -0.2142
    1DIPC   GL121087  22.429  30.128   3.688  0.2324  0.2072 -0.0316
    1DIPC   GL221088  22.501   0.086   3.828  0.1375 -0.1928  0.0985
    1DIPC   C1A21089  22.264  30.042   4.093 -0.0320  0.0590 -0.2989
    1DIPC   D2A21090  21.894  29.921   4.269  0.0599  0.2611  0.1477
    1DIPC   D3A21091  21.752  30.178   4.595  0.0954 -0.0613 -0.0538
    1DIPC   C4A21092  21.568  30.232   4.987 -0.1637  0.1421 -0.0495
    1DIPC   C1B21093  22.895  30.317   3.982  0.0052  0.0257 -0.2555
    1DIPC   D2B21094  22.865  30.010   4.296 -0.0467 -0.1336  0.1361
    1DIPC   D3B21095  22.989  30.202   4.616 -0.0731 -0.4984 -0.0386
    1DIPC   C4B21096  22.698   0.048   4.847  0.3272 -0.0424  0.3623
    1DIPC   NC321097  18.055   6.687   2.096 -0.1285 -0.1365  0.0951
    1DIPC   PO421098  17.716   6.617   2.039 -0.3058  0.0289 -0.3330
    1DIPC   GL121099  17.454   6.439   2.401  0.0397 -0.1624 -0.0476
    1DIPC   GL221100  17.648   6.370   2.598 -0.2067  0.0277 -0.3370
    1DIPC   C1A21101  17.308   6.577   2.900  0.2743  0.0913  0.1417
    1DIPC   D2A21102  17.270   6.845   3.270  0.0619 -0.1723 -0.2323
    1DIPC   D3A21103  17.019   6.725   3.624 -0.3076  0.0238  0.2714
    1DIPC   C4A21104  17.166   6.303   3.753 -0.0994  0.1805  0.0227
    1DIPC   C1B21105  17.661   6.254   3.059  0.0165 -0.4336 -0.1443
    1DIPC   D2B21106  17.488   6.418   3.361 -0.1731 -0.0158 -0.0649
    1DIPC   D3B21107  17.779   6.271   3.633 -0.1471 -0.0442  0.2357
    1DIPC   C4B21108  17.908   6.114   4.074 -0.3491 -0.2869  0.2859
    1DIPC   NC321109  18.937   9.392   1.862  0.1084 -0.0574  0.0123
    1DIPC   PO421110  18.922   9.419   2.303 -0.6336 -0.1878  0.0690
    1DIPC   GL121111  19.049   9.034   2.465 -0.1504 -0.2205  0.1943
    1DIPC   GL221112  19.149   9.115   2.756  0.1862 -0.0429  0.1241
    1DIPC   C1A21113  18.868   8.587   2.575  0.0105  0.0335 -0.1548
    1DIPC   D2A21114  18.626   8.462   2.876 -0.1561 -0.0825  0.2571
    1DIPC   D3A21115  18.722   8.922   3.019 -0.1000 -0.2331 -0.0391
    1DIPC   C4A21116  18.419   9.270   3.113 -0.0576 -0.0560  0.0262
    1DIPC   C1B21117  19.419   9.298   2.963 -0.1307  0.1601  0.1627
    1DIPC   D2B21118  19.669   9.079   3.296  0.1633 -0.0639 -0.2204
    1DIPC   D3B21119  19.630   8.777   3.270  0.1801  0.2085 -0.1652
    1DIPC   C4B21120  19.881   8.484   3.505 -0.0096  0.1650 -0.0140
    1DIPC   NC321121  20.247  22.891   1.995 -0.2519 -0.0271  0.0294
    1DIPC   PO421122  20.219  23.162   2.394  0.1557 -0.0820 -0.2825
    1DIPC   GL121123  20.250  22.845   2.695  0.0101  0.1247  0.1085
    1DIPC   GL221124  20.556  22.849   2.814  0.0747 -0.0629 -0.2440
    1DIPC   C1A21125  20.307  22.609   3.188 -0.1445 -0.1117 -0.3668
    1DIPC   D2A21126  20.623  22.374   3.350  0.0506  0.1641  0.2197
    1DIPC   D3A21127  20.723  22.499   3.811 -0.3720 -0.0207  0.0922
    1DIPC   C4A21128  20.395  22.449   4.095 -0.0368  0.3683 -0.2384
    1DIPC   C1B21129  20.820  22.731   3.082 -0.0901  0.0445  0.2922
    1DIPC   D2B21130  20.891  22.826   3.355 -0.0672  0.1066 -0.2069
    1DIPC   D3B21131  20.495  22.910   3.691 -0.0157 -0.0529  0.0097
    1DIPC   C4B21132  20.368  22.891   4.069 -0.1209 -0.1389  0.1399
    1DIPC   NC321133  18.694  22.144   2.369  0.0224  0.3201  0.1167
    1DIPC   PO421134  19.155  22.195   2.368 -0.1628  0.4196  0.1054
    1DIPC   GL121135  18.991  22.110   2.749 -0.0923  0.1946 -0.1702
    1DIPC   GL221136  18.961  21.756   2.915 -0.0113  0.0177 -0.3747
    1DIPC   C1A21137  19.077  22.438   3.118  0.1678  0.1441  0.1076
    1DIPC   D2A21138  19.206  22.497   3.528  0.0744  0.0649  0.1584
    1DIPC   D3A21139  19.285  22.694   3.936  0.1511 -0.0291  0.0317
    1DIPC   C4A21140  19.857  22.657   4.057 -0.1054 -0.0467 -0.0830
    1DIPC   C1B21141  19.103  21.921   3.298 -0.3944  0.1633 -0.0783
    1DIPC   D2B21142  19.172  22.051   3.734  0.0122 -0.0821  0.1470
    1DIPC   D3B21143  19.271  22.175   4.137  0.1779 -0.1118 -0.0083
    1DIPC   C4B21144  18.957  22.463   4.331  0.4100 -0.0276  0.1451
    1DIPC   NC321145  13.435  22.979   2.590  0.3446 -0.0341  0.2730
    1DIPC   PO421146  13.899  23.109   2.710  0.0365  0.1816  0.0811
    1DIPC   GL121147  13.726  23.173   3.065 -0.0335  0.1035  0.0204
    1DIPC   GL221148  13.408  23.174   3.161 -0.0704 -0.0158  0.0757
    1DIPC   C1A21149  13.834  23.280   3.448  0.0282 -0.1654 -0.0960
    1DIPC   D2A21150  13.932  23.377   3.855 -0.0022 -0.1222 -0.1472
    1DIPC   D3A21151  13.753  23.744   4.108  0.0245 -0.2453  0.1275
    1DIPC   C4A21152  13.459  23.680   4.448  0.0188  0.0021 -0.1818
    1DIPC   C1B21153  13.317  23.101   3.673 -0.1170 -0.0024  0.2337
    1DIPC   D2B21154  13.537  23.222   4.134 -0.3160  0.0039 -0.2034
    1DIPC   D3B21155  13.906  23.250   4.539 -0.1536  0.0104 -0.0002
    1DIPC   C4B21156  14.498  23.288   4.615 -0.2111  0.0559 -0.1280
    1DIPC   NC321157  13.357   1.905   3.127  0.0949  0.1219  0.0040
    1DIPC   PO421158  13.271   1.405   3.337  0.0427  0.0049 -0.0285
    1DIPC   GL121159  13.231   1.766   3.586  0.1130 -0.0477 -0.3883
    1DIPC   GL221160  12.945   1.959   3.466  0.1378  0.3043 -0.1437
    1DIPC   C1A21161  13.066   1.752   4.107 -0.2401  0.0790 -0.0037
    1DIPC   D2A21162  13.097   2.136   4.405  0.0042  0.2041  0.2090
    1DIPC   D3A21163  13.226   2.587   4.214  0.1201  0.0589  0.1500
    1DIPC   C4A21164  12.860   2.804   4.027  0.0612  0.0843  0.0738
    1DIPC   C1B21165  13.334   2.157   3.824 -0.1613  0.3212  0.0024
    1DIPC   D2B21166  13.620   2.223   4.056 -0.2247 -0.2902  0.1124
    1DIPC   D3B21167  13.510   1.849   4.346 -0.0108  0.0782 -0.1422
    1DIPC   C4B21168  13.531   1.868   4.730 -0.0820  0.0219 -0.2056
    1DIPC   NC321169  24.760   2.764   3.371 -0.3170 -0.3736 -0.1642
    1DIPC   PO421170  25.017   2.467   3.647  0.0719 -0.0348  0.1262
    1DIPC   GL121171  25.111   2.478   4.082 -0.0588  0.0050 -0.0259
    1DIPC   GL221172  25.413   2.537   4.059 -0.0139 -0.0039  0.0837
    1DIPC   C1A21173  24.947   2.732   4.362 -0.0249 -0.3342  0.0213
    1DIPC   D2A21174  24.824   3.182   4.422 -0.1744  0.1472 -0.0546
    1DIPC   D3A21175  25.053   3.472   4.686 -0.0942 -0.0731 -0.0795
    1DIPC   C4A21176  24.748   3.658   4.974 -0.2314  0.0383 -0.1516
    1DIPC   C1B21177  25.598   2.324   4.404  0.3245  0.0727  0.1405
    1DIPC   D2B21178  25.965   2.409   4.692 -0.2598  0.0141 -0.2386
    1DIPC   D3B21179  25.661   2.510   4.899  0.6054 -0.1030 -0.1071
    1DIPC   C4B21180  25.443   2.742   5.111 -0.2890 -0.0688 -0.1016
    1DIPC   NC321181  14.777   3.099   2.700 -0.3014 -0.0727 -0.1153
    1DIPC   PO421182  15.106   3.164   2.971 -0.2634 -0.0997  0.1569
    1DIPC   GL121183  15.136   2.921   3.334 -0.2603 -0.6103 -0.1180
    1DIPC   GL221184  14.867   2.659   3.353 -0.0298  0.2330 -0.2628
    1DIPC   C1A21185  15.188   2.630   3.729  0.2016  0.0159  0.0924
    1DIPC   D2A21186  15.366   2.662   4.080 -0.1234  0.4599  0.1173
    1DIPC   D3A21187  14.893   2.632   4.247 -0.0549 -0.3225 -0.0456
    1DIPC   C4A21188  14.833   2.880   4.726  0.1926 -0.1064  0.2771
    1DIPC   C1B21189  14.596   2.602   3.721  0.1338 -0.0047 -0.3042
    1DIPC   D2B21190  14.411   2.824   4.121  0.1150  0.0950  0.1727
    1DIPC   D3B21191  14.720   3.091   4.277  0.3123  0.0394  0.0597
    1DIPC   C4B21192  15.033   3.035   3.947 -0.0476 -0.1817  0.2002
    1DIPC   NC321193  10.534  25.675   2.143 -0.1473 -0.3707  0.2270
    1DIPC   PO421194  10.756  25.972   2.370 -0.2412  0.2156  0.1192
    1DIPC   GL121195  10.735  25.608   2.666  0.3331 -0.0674  0.1732
    1DIPC   GL221196  10.885  25.442   2.739  0.1670 -0.1040  0.2010
    1DIPC   C1A21197  10.614  25.535   3.179 -0.1280  0.1000 -0.2311
    1DIPC   D2A21198  10.369  25.345   3.508  0.0248 -0.1846 -0.0182
    1DIPC   D3A21199  10.806  25.003   3.585 -0.0351  0.1188 -0.1271
    1DIPC   C4A21200  11.006  24.850   3.189 -0.1750 -0.2939 -0.1400
    1DIPC   C1B21201  11.054  25.388   3.036  0.3882  0.0272 -0.0485
    1DIPC   D2B21202  11.418  25.209   3.305 -0.1716  0.2905 -0.3867
    1DIPC   D3B21203  11.653  24.827   3.443 -0.1790 -0.0529 -0.3041
    1DIPC   C4B21204  11.574  24.529   3.759 -0.0673  0.1448 -0.2759
    1DIPC   NC321205   3.593  22.570   2.140 -0.2388 -0.0299 -0.1312
    1DIPC   PO421206   3.358  22.244   2.058 -0.0413  0.0541  0.0496
    1DIPC   GL121207   3.400  22.185   2.504 -0.1723  0.0226  0.4146
    1DIPC   GL221208   3.640  22.424   2.638 -0.0795 -0.1457 -0.2464
    1DIPC   C1A21209   3.440  22.171   2.998 -0.2739  0.0014  0.0392
    1DIPC   D2A21210   3.849  22.276   3.082  0.3139  0.1786 -0.0954
    1DIPC   D3A21211   3.866  22.019   2.788 -0.2283  0.2034  0.0549
    1DIPC   C4A21212   3.866  21.679   2.945  0.1566 -0.0944  0.0641
    1DIPC   C1B21213   4.084  22.400   2.601 -0.1883  0.0705  0.1824
    1DIPC   D2B21214   4.473  22.324   2.661  0.0329 -0.1393  0.2216
    1DIPC   D3B21215   4.927  22.356   2.504  0.0191  0.0763 -0.0619
    1DIPC   C4B21216   5.218  22.671   2.626  0.1598 -0.3088 -0.2166
    1DIPC   NC321217  29.940   1.921   3.732  0.1445 -0.2358 -0.0245
    1DIPC   PO421218  29.914   1.563   4.008 -0.2170 -0.0871 -0.0023
    1DIPC   GL121219  30.099   1.696   4.336 -0.0013  0.1347 -0.0146
    1DIPC   GL221220  30.340   1.421   4.335  0.1603  0.0330  0.0224
    1DIPC   C1A21221  30.018   1.958   4.672  0.3290 -0.1439 -0.2235
    1DIPC   D2A21222  30.056   2.144   4.793 -0.1393 -0.0168 -0.0815
    1DIPC   D3A21223   0.077   2.214   5.070 -0.2114 -0.0672 -0.2318
    1DIPC   C4A21224   0.435   2.236   4.859 -0.2729 -0.0194 -0.0920
    1DIPC   C1B21225  30.344   1.523   4.870  0.5232 -0.1075  0.2443
    1DIPC   D2B21226  30.280   1.419   5.348 -0.1660  0.2073  0.0981
    1DIPC   D3B21227  30.190   1.842   5.257  0.1053 -0.0143 -0.2446
    1DIPC   C4B21228   0.010   2.008   5.637 -0.0642 -0.1887  0.0336
    1DIPC   NC321229  11.591  10.515   3.575 -0.4183 -0.3404  0.1446
    1DIPC   PO421230  11.838  10.775   3.923 -0.2165  0.0758 -0.2266
    1DIPC   GL121231  11.978  10.699   4.287 -0.0011  0.1138 -0.1455
    1DIPC   GL221232  11.869  10.978   4.473  0.0381 -0.0888 -0.0668
    1DIPC   C1A21233  12.165  10.518   4.575 -0.2320  0.1610  0.1695
    1DIPC   D2A21234  12.331  10.287   4.923  0.0875  0.0614 -0.0172
    1DIPC   D3A21235  11.965  10.115   5.120 -0.0473 -0.1487  0.0762
    1DIPC   C4A21236  11.689  10.081   4.855 -0.1298  0.0701 -0.1806
    1DIPC   C1B21237  12.164  11.031   4.902  0.1424 -0.1359 -0.2317
    1DIPC   D2B21238  12.246  11.183   5.395  0.1256  0.2837 -0.0468
    1DIPC   D3B21239  12.440  11.569   5.378  0.2606  0.2689 -0.0747
    1DIPC   C4B21240  12.795  11.626   5.153 -0.3176  0.2822 -0.2910
    1DIPC   NC321241  22.433  14.547   2.120  0.0943 -0.0075  0.1912
    1DIPC   PO421242  22.002  14.419   2.397 -0.2094 -0.2231  0.2033
    1DIPC   GL121243  22.090  14.319   2.843 -0.3550 -0.1019 -0.2977
    1DIPC   GL221244  22.340  14.154   2.749 -0.0917 -0.1165 -0.0077
    1DIPC   C1A21245  21.995  14.316   3.238  0.1942  0.1543  0.4550
    1DIPC   D2A21246  21.885  13.933   3.544  0.2103 -0.1557 -0.1490
    1DIPC   D3A21247  21.928  13.612   3.883  0.3103 -0.0698 -0.3406
    1DIPC   C4A21248  22.251  13.240   3.933  0.1360 -0.0041  0.1084
    1DIPC   C1B21249  22.515  13.873   3.057 -0.0235  0.0749 -0.0836
    1DIPC   D2B21250  22.536  13.373   3.192  0.0375 -0.0679  0.2303
    1DIPC   D3B21251  22.631  13.222   3.589  0.0418  0.2669  0.0812
    1DIPC   C4B21252  22.928  12.953   3.820  0.2840  0.3498  0.0028
    1DIPC   NC321253   3.464   6.508   2.855  0.1064  0.1256 -0.2043
    1DIPC   PO421254   3.792   6.313   3.154 -0.3851  0.1171  0.0905
    1DIPC   GL121255   3.597   6.226   3.561 -0.0126 -0.3030 -0.2044
    1DIPC   GL221256   3.506   5.919   3.637 -0.1556  0.3065 -0.0024
    1DIPC   C1A21257   3.444   6.383   3.917  0.2992 -0.1325  0.0504
    1DIPC   D2A21258   3.262   6.569   4.148 -0.0014 -0.2549  0.1341
    1DIPC   D3A21259   3.502   6.334   4.444  0.0451  0.0453 -0.1914
    1DIPC   C4A21260   3.736   6.517   4.785 -0.0349  0.0116 -0.1037
    1DIPC   C1B21261   3.142   5.880   3.753 -0.2698  0.1818 -0.3250
    1DIPC   D2B21262   2.858   5.875   4.101  0.0106  0.2174 -0.3864
    1DIPC   D3B21263   2.861   6.179   4.468 -0.2078 -0.0873 -0.1842
    1DIPC   C4B21264   2.922   5.943   4.865  0.0340 -0.0868  0.1494
    1DIPC   NC321265  28.596  27.201   2.939  0.1847 -0.0508  0.1277
    1DIPC   PO421266  28.998  26.983   2.965  0.0115 -0.3071 -0.2030
    1DIPC   GL121267  29.107  26.792   3.299 -0.0388  0.3050  0.1990
    1DIPC   GL221268  29.316  27.058   3.485 -0.2236 -0.6284 -0.0006
    1DIPC   C1A21269  28.753  26.746   3.522 -0.0402  0.1327 -0.0314
    1DIPC   D2A21270  28.604  26.709   3.994  0.0574 -0.0869 -0.1728
    1DIPC   D3A21271  28.632  26.984   4.194  0.2246  0.0987 -0.0821
    1DIPC   C4A21272  28.664  27.107   4.570 -0.0019 -0.2109 -0.0948
    1DIPC   C1B21273  29.415  27.176   3.868 -0.1621  0.2553 -0.3148
    1DIPC   D2B21274  29.758  27.166   4.228 -0.2815 -0.0834  0.0418
    1DIPC   D3B21275  29.489  27.248   4.514 -0.1306 -0.1005  0.1343
    1DIPC   C4B21276  29.822  27.244   4.859  0.3010  0.3376 -0.1991
    1DIPC   NC321277  23.780   3.478   3.036 -0.0308  0.4228 -0.1723
    1DIPC   PO421278  23.683   3.708   3.449  0.0029  0.1558  0.0154
    1DIPC   GL121279  23.425   3.626   3.869  0.0752  0.0733  0.3715
    1DIPC   GL221280  23.053   3.540   3.865  0.1413  0.2472 -0.0645
    1DIPC   C1A21281  23.427   3.411   4.366 -0.0069  0.0649  0.0287
    1DIPC   D2A21282  23.321   3.085   4.797 -0.1182 -0.0848 -0.3117
    1DIPC   D3A21283  23.036   3.217   5.123 -0.2860  0.0437 -0.3114
    1DIPC   C4A21284  22.616   3.356   5.149 -0.1889  0.0934 -0.1808
    1DIPC   C1B21285  22.987   3.720   4.272  0.1727  0.0408  0.4142
    1DIPC   D2B21286  23.139   3.676   4.678 -0.2307 -0.0064  0.3949
    1DIPC   D3B21287  22.702   3.707   4.674  0.1331  0.2009  0.2336
    1DIPC   C4B21288  22.374   3.449   4.632  0.0688 -0.0690  0.3649
    1DIPC   NC321289  14.264   7.750   2.312 -0.0171  0.1470  0.3107
    1DIPC   PO421290  14.227   8.091   2.387 -0.1795  0.0495 -0.2780
    1DIPC   GL121291  14.349   8.054   2.794  0.1080  0.3028 -0.1124
    1DIPC   GL221292  14.165   8.085   3.088  0.0851 -0.3759 -0.1255
    1DIPC   C1A21293  14.721   8.096   2.960 -0.1686  0.2733  0.3716
    1DIPC   D2A21294  14.982   8.071   3.297 -0.0232 -0.1824  0.0382
    1DIPC   D3A21295  14.866   8.557   3.524  0.0722  0.0606  0.0519
    1DIPC   C4A21296  14.898   8.867   3.266  0.0367  0.3705  0.0867
    1DIPC   C1B21297  14.498   8.188   3.397 -0.2335 -0.0206 -0.1647
    1DIPC   D2B21298  14.742   7.976   3.695  0.0103  0.0427 -0.0601
    1DIPC   D3B21299  15.184   7.885   3.704  0.2499  0.2673 -0.0956
    1DIPC   C4B21300  15.487   7.572   3.524 -0.1449 -0.0158 -0.0952
    1DIPC   NC321301  24.008  22.160   2.528 -0.0366  0.0108 -0.0015
    1DIPC   PO421302  24.161  21.739   2.414  0.1441 -0.3370 -0.0787
    1DIPC   GL121303  23.938  21.538   2.846  0.0975 -0.0426 -0.0965
    1DIPC   GL221304  23.663  21.632   2.958  0.2790 -0.2688  0.2598
    1DIPC   C1A21305  24.074  21.601   3.261 -0.2235 -0.2019  0.1856
    1DIPC   D2A21306  24.353  21.611   3.552  0.0762  0.3483 -0.0152
    1DIPC   D3A21307  24.738  21.353   3.590  0.0005  0.0368 -0.1533
    1DIPC   C4A21308  24.690  21.424   4.054  0.0192  0.2013  0.2930
    1DIPC   C1B21309  23.629  21.595   3.423  0.4169  0.1147 -0.0769
    1DIPC   D2B21310  23.129  21.590   3.597  0.0230  0.0299 -0.0563
    1DIPC   D3B21311  23.041  21.701   3.923  0.1705 -0.0641 -0.0608
    1DIPC   C4B21312  22.937  21.341   4.222 -0.1040 -0.2678 -0.0613
    1DIPC   NC321313  23.131   4.641   3.223 -0.1995  0.1968 -0.0017
    1DIPC   PO421314  22.873   4.298   3.348  0.2148 -0.0115  0.0936
    1DIPC   GL121315  22.950   4.296   3.773  0.1504  0.1675 -0.1125
    1DIPC   GL221316  23.164   4.093   3.950  0.1232  0.0380  0.2719
    1DIPC   C1A21317  22.701   4.240   4.254 -0.2744 -0.0703  0.5269
    1DIPC   D2A21318  22.778   4.490   4.676  0.1035 -0.0435 -0.1836
    1DIPC   D3A21319  22.799   4.327   5.074 -0.0654 -0.2362 -0.0868
    1DIPC   C4A21320  22.790   3.879   5.117 -0.0180 -0.0409 -0.0037
    1DIPC   C1B21321  23.449   3.963   4.258  0.0230 -0.1602  0.3321
    1DIPC   D2B21322  23.784   3.739   4.292  0.2261 -0.2179  0.2860
    1DIPC   D3B21323  23.955   3.408   4.498  0.0277  0.0840  0.0735
    1DIPC   C4B21324  24.021   3.373   4.941  0.2447  0.1810 -0.3018
    1DIPC   NC321325   9.133  15.516   2.567 -0.1036 -0.0184  0.1554
    1DIPC   PO421326   8.738  15.745   2.480 -0.1699 -0.2065  0.0027
    1DIPC   GL121327   8.615  15.880   2.793  0.1800 -0.1124 -0.0742
    1DIPC   GL221328   8.880  15.711   3.013  0.1990  0.0790  0.0056
    1DIPC   C1A21329   8.301  16.161   2.913  0.0337  0.0201  0.0499
    1DIPC   D2A21330   7.844  16.206   3.058 -0.2165  0.1881 -0.0630
    1DIPC   D3A21331   7.500  16.173   2.865  0.1215  0.3669 -0.0821
    1DIPC   C4A21332   7.209  16.132   2.562  0.0547 -0.2023 -0.0867
    1DIPC   C1B21333   8.956  15.876   3.367 -0.1607 -0.0416 -0.1371
    1DIPC   D2B21334   8.974  16.027   3.805  0.1085 -0.0244  0.1874
    1DIPC   D3B21335   8.579  16.146   3.830  0.2626 -0.0582  0.0669
    1DIPC   C4B21336   8.211  16.258   3.487 -0.2294 -0.2255 -0.0047
    1DIPC   NC321337  23.647  24.881   2.688  0.3191  0.2077  0.0554
    1DIPC   PO421338  24.076  24.817   2.826  0.0823  0.0582 -0.0352
    1DIPC   GL121339  24.122  24.704   3.213 -0.4703  0.0392 -0.1255
    1DIPC   GL221340  23.960  24.491   3.371 -0.1887 -0.0640  0.0365
    1DIPC   C1A21341  24.227  24.661   3.725 -0.1146  0.1430 -0.2582
    1DIPC   D2A21342  24.335  24.559   4.141 -0.3487  0.0555 -0.1017
    1DIPC   D3A21343  24.718  24.913   4.322  0.1345  0.1009  0.2191
    1DIPC   C4A21344  25.252  24.956   4.463  0.0639 -0.1805  0.0899
    1DIPC   C1B21345  23.772  24.219   3.719  0.0500  0.1501 -0.1423
    1DIPC   D2B21346  23.501  23.851   3.767  0.0312  0.0215  0.2148
    1DIPC   D3B21347  23.354  23.687   4.130  0.1214  0.1761 -0.2078
    1DIPC   C4B21348  23.630  23.726   4.454 -0.1310  0.0832 -0.0641
    1DIPC   NC321349  24.557  22.692   2.714 -0.1434 -0.0181 -0.2438
    1DIPC   PO421350  24.659  23.125   2.710 -0.1850  0.3434  0.1529
    1DIPC   GL121351  24.951  22.892   3.046 -0.0885 -0.2251 -0.0422
    1DIPC   GL221352  25.024  22.685   2.904 -0.1001 -0.1159  0.1514
    1DIPC   C1A21353  25.076  23.013   3.478 -0.0320  0.0551 -0.0293
    1DIPC   D2A21354  25.391  22.778   3.720  0.3831  0.0190  0.0535
    1DIPC   D3A21355  25.307  23.010   4.059  0.0175  0.0394 -0.2020
    1DIPC   C4A21356  25.514  23.265   4.439 -0.0676 -0.0327  0.1795
    1DIPC   C1B21357  25.198  22.526   3.287 -0.3273 -0.1994  0.1621
    1DIPC   D2B21358  25.546  22.376   3.503  0.0802  0.2394 -0.3572
    1DIPC   D3B21359  25.771  22.482   3.868  0.2492  0.0113 -0.2364
    1DIPC   C4B21360  25.957  22.217   4.174  0.0431  0.3022  0.1202
    1DIPC   NC321361   4.150   6.296   2.829 -0.2821  0.4020 -0.1074
    1DIPC   PO421362   4.534   6.225   2.749  0.1206  0.0642 -0.0882
    1DIPC   GL121363   4.498   6.403   3.158  0.0104  0.1172 -0.0413
    1DIPC   GL221364   4.242   6.259   3.364 -0.1759  0.0947 -0.3941
    1DIPC   C1A21365   4.675   6.502   3.514 -0.0780 -0.3314  0.2819
    1DIPC   D2A21366   4.889   6.788   3.834  0.0401 -0.1031  0.3071
    1DIPC   D3A21367   4.743   6.510   4.096  0.1734 -0.0376  0.3951
    1DIPC   C4A21368   4.876   6.361   4.389  0.0424  0.0960  0.2324
    1DIPC   C1B21369   4.361   6.090   3.732 -0.1798  0.3920  0.1221
    1DIPC   D2B21370   4.667   5.964   3.986 -0.1501  0.0120 -0.1541
    1DIPC   D3B21371   4.535   5.824   4.313  0.0367 -0.3331  0.1515
    1DIPC   C4B21372   4.712   5.937   4.642  0.1081  0.0638 -0.1610
    1DIPC   NC321373  15.268  28.954   2.277 -0.4795  0.0238  0.1460
    1DIPC   PO421374  15.259  28.939   2.744  0.3747  0.0951 -0.2607
    1DIPC   GL121375  15.420  28.907   3.237 -0.1028  0.1905  0.1304
    1DIPC   GL221376  15.640  28.725   3.340 -0.0382  0.3754 -0.2562
    1DIPC   C1A21377  15.558  29.164   3.550 -0.2302 -0.0355  0.0630
    1DIPC   D2A21378  15.616  29.186   4.036  0.1703  0.4011  0.0892
    1DIPC   D3A21379  15.884  29.348   4.300  0.0815  0.3381  0.2201
    1DIPC   C4A21380  15.915  29.433   4.753 -0.1591 -0.0116 -0.1205
    1DIPC   C1B21381  15.495  28.690   3.883 -0.0726  0.2803 -0.0994
    1DIPC   D2B21382  15.329  28.867   4.281 -0.0481  0.0671 -0.4990
    1DIPC   D3B21383  15.687  28.784   4.402  0.0238  0.3951 -0.2230
    1DIPC   C4B21384  15.954  28.664   4.195  0.1334 -0.0290 -0.3729
    1DIPC   NC321385   5.330   4.559   2.954 -0.0878  0.3078 -0.2701
    1DIPC   PO421386   4.965   4.727   3.222 -0.0796  0.1515 -0.0918
    1DIPC   GL121387   4.915   4.694   3.706 -0.0254  0.2462  0.1338
    1DIPC   GL221388   4.815   4.950   3.725 -0.0678  0.1596 -0.1992
    1DIPC   C1A21389   5.299   4.579   4.006  0.0619 -0.4058 -0.2137
    1DIPC   D2A21390   5.283   4.677   4.516  0.0793  0.2103  0.1688
    1DIPC   D3A21391   4.918   4.507   4.388  0.1669  0.0877  0.0086
    1DIPC   C4A21392   4.832   4.348   4.050 -0.2073 -0.2956  0.1934
    1DIPC   C1B21393   4.945   4.933   4.165  0.0500 -0.2428  0.1297
    1DIPC   D2B21394   4.902   5.063   4.611 -0.0372  0.2707 -0.1530
    1DIPC   D3B21395   5.003   4.889   4.878  0.1008 -0.0786  0.1851
    1DIPC   C4B21396   4.677   4.734   5.169 -0.0967 -0.1358  0.0943
    1DIPC   NC321397  13.405   2.467   2.628  0.2892  0.2267  0.0539
    1DIPC   PO421398  13.126   2.326   3.054 -0.1119  0.2859 -0.0876
    1DIPC   GL121399  13.170   2.460   3.416  0.2861 -0.1796  0.3697
    1DIPC   GL221400  12.954   2.444   3.666  0.2186  0.2223  0.1496
    1DIPC   C1A21401  13.327   2.833   3.654 -0.0715  0.1204  0.2080
    1DIPC   D2A21402  13.690   2.686   4.020  0.1876 -0.1831  0.0860
    1DIPC   D3A21403  13.593   2.995   4.278 -0.0245  0.0193  0.1282
    1DIPC   C4A21404  13.186   3.097   4.262  0.2081  0.1695 -0.1969
    1DIPC   C1B21405  12.868   2.291   4.026  0.1269 -0.0072 -0.1214
    1DIPC   D2B21406  12.784   2.479   4.469  0.0123  0.2589  0.1114
    1DIPC   D3B21407  13.086   2.581   4.678  0.3464 -0.0191  0.1016
    1DIPC   C4B21408  13.287   2.887   4.760 -0.2003  0.0693  0.4377
    1DIPC   NC321409  24.252   8.024   2.756  0.3195 -0.1746 -0.2871
    1DIPC   PO421410  24.706   7.813   2.695 -0.2329  0.0795  0.1928
    1DIPC   GL121411  24.898   8.056   2.979 -0.1099  0.2327  0.2668
    1DIPC   GL221412  25.071   8.399   2.894  0.3094  0.1381  0.1426
    1DIPC   C1A21413  24.973   8.222   3.396  0.0888  0.1137  0.0967
    1DIPC   D2A21414  25.160   8.094   3.722 -0.0156  0.0043  0.0219
    1DIPC   D3A21415  24.802   8.017   3.869 -0.1380  0.0496  0.3989
    1DIPC   C4A21416  24.850   8.034   4.251  0.0682 -0.0006 -0.4594
    1DIPC   C1B21417  25.236   8.566   3.175 -0.0450 -0.1606 -0.0295
    1DIPC   D2B21418  25.466   8.642   3.580  0.0508 -0.0685 -0.0508
    1DIPC   D3B21419  25.478   8.700   4.023  0.1360  0.1716  0.1496
    1DIPC   C4B21420  25.477   9.098   4.329 -0.0859 -0.0424 -0.0824
    1DIPC   NC321421   3.510   0.072   3.657  0.2445  0.1178 -0.1577
    1DIPC   PO421422   3.288   0.440   3.710 -0.0768 -0.0774  0.1296
    1DIPC   GL121423   3.359   0.338   4.186 -0.1915  0.0216 -0.1531
    1DIPC   GL221424   3.442   0.044   4.174  0.1648  0.1002  0.0924
    1DIPC   C1A21425   3.688   0.216   4.543  0.1885  0.0159 -0.2385
    1DIPC   D2A21426   4.125   0.174   4.452 -0.1259 -0.0270  0.4489
    1DIPC   D3A21427   4.091   0.278   4.856 -0.2190  0.1250  0.1742
    1DIPC   C4A21428   3.671   0.052   5.040  0.0234  0.1648  0.3013
    1DIPC   C1B21429   3.336  30.013   4.197  0.2362  0.2762 -0.0542
    1DIPC   D2B21430   3.213  29.552   4.270  0.0322  0.1822  0.0862
    1DIPC   D3B21431   3.631  29.506   4.430  0.1790  0.1399 -0.0993
    1DIPC   C4B21432   3.737  29.393   4.822 -0.0473 -0.0950 -0.1233
    1DIPC   NC321433  27.135  29.359   3.464  0.1276 -0.1397  0.0357
    1DIPC   PO421434  27.254  29.140   3.877 -0.0874 -0.0884 -0.1544
    1DIPC   GL121435  27.234  29.112   4.403 -0.0284 -0.2824 -0.1772
    1DIPC   GL221436  27.451  28.886   4.539  0.0849  0.0161  0.2624
    1DIPC   C1A21437  26.888  29.227   4.623  0.0923 -0.0585 -0.3991
    1DIPC   D2A21438  26.506  29.369   4.569  0.1176  0.0302 -0.2939
    1DIPC   D3A21439  26.677  29.389   5.084  0.0617 -0.0787  0.1326
    1DIPC   C4A21440  26.379  29.669   5.264  0.1031 -0.2333  0.0557
    1DIPC   C1B21441  27.888  29.118   4.658 -0.0974  0.1022  0.3207
    1DIPC   D2B21442  28.372  29.067   4.682 -0.3896  0.0639 -0.2300
    1DIPC   D3B21443  28.602  29.073   5.045 -0.0391  0.2131  0.1055
    1DIPC   C4B21444  28.325  29.167   5.356 -0.1269  0.0589 -0.3495
    1DIPC   NC321445   7.001   2.959   3.583 -0.0911 -0.1760 -0.1570
    1DIPC   PO421446   6.771   3.024   3.934  0.0636 -0.0881  0.1113
    1DIPC   GL121447   6.492   2.824   4.198  0.1630  0.1393 -0.0492
    1DIPC   GL221448   6.256   2.989   4.215  0.2865  0.0115  0.2739
    1DIPC   C1A21449   6.473   2.494   4.609 -0.0199 -0.1530 -0.1026
    1DIPC   D2A21450   6.684   2.432   4.959 -0.2824  0.2070 -0.0353
    1DIPC   D3A21451   7.086   2.555   4.858  0.0079 -0.2134 -0.1162
    1DIPC   C4A21452   7.505   2.384   5.037 -0.2531  0.2511 -0.0301
    1DIPC   C1B21453   6.105   3.008   4.675  0.0909 -0.3635  0.0801
    1DIPC   D2B21454   6.259   3.028   5.042 -0.1755  0.0939  0.2161
    1DIPC   D3B21455   6.153   3.435   5.037 -0.0018 -0.1010 -0.2577
    1DIPC   C4B21456   5.703   3.451   5.262  0.0779  0.0571 -0.0728
    1DIPC   NC321457  14.027  14.577   3.457 -0.0863 -0.1616 -0.2520
    1DIPC   PO421458  13.803  14.866   3.273  0.0991  0.1375  0.0944
    1DIPC   GL121459  13.874  15.074   3.669 -0.1814 -0.0805  0.1966
    1DIPC   GL221460  13.898  15.380   3.728 -0.0904 -0.1549  0.0654
    1DIPC   C1A21461  14.024  14.917   4.073  0.0266 -0.1496  0.3280
    1DIPC   D2A21462  14.016  14.664   4.423  0.2373 -0.2044  0.0837
    1DIPC   D3A21463  14.074  15.101   4.529  0.0992 -0.0696 -0.1063
    1DIPC   C4A21464  14.378  15.377   4.663 -0.0690  0.3220 -0.1077
    1DIPC   C1B21465  13.598  15.262   4.038  0.0430  0.1784  0.1714
    1DIPC   D2B21466  13.072  15.272   4.024 -0.0380 -0.0962  0.1957
    1DIPC   D3B21467  13.186  15.184   4.349 -0.0398 -0.3300  0.0900
    1DIPC   C4B21468  13.208  15.508   4.725  0.0123  0.2219 -0.0637
    1DIPC   NC321469  14.346   6.815   2.714 -0.3132 -0.0647 -0.2347
    1DIPC   PO421470  14.273   7.269   2.406  0.2724  0.0522 -0.0972
    1DIPC   GL121471  14.355   7.309   2.821  0.0014 -0.3989  0.2131
    1DIPC   GL221472  14.494   7.577   2.787  0.1823 -0.3158  0.2214
    1DIPC   C1A21473  14.444   7.241   3.233 -0.0112  0.0023 -0.1895
    1DIPC   D2A21474  14.671   7.485   3.669 -0.1105 -0.0987  0.0977
    1DIPC   D3A21475  15.037   7.282   3.860  0.1185 -0.0755  0.3082
    1DIPC   C4A21476  15.118   6.757   3.871  0.1520  0.0026  0.0717
    1DIPC   C1B21477  14.734   7.673   3.206 -0.1614 -0.1915 -0.0363
    1DIPC   D2B21478  15.060   7.378   3.365 -0.1164 -0.3248  0.0671
    1DIPC   D3B21479  14.800   6.984   3.561 -0.1127 -0.0305 -0.0327
    1DIPC   C4B21480  14.392   6.997   3.671  0.2386 -0.1223  0.1688
    1DIPC   NC321481  10.847   4.020   2.693  0.1203 -0.0165 -0.1598
    1DIPC   PO421482  11.164   4.020   2.791  0.2037 -0.0910  0.0295
    1DIPC   GL121483  11.070   4.185   3.207  0.0742  0.2111  0.2168
    1DIPC   GL221484  10.679   4.255   3.355  0.2096  0.1357  0.0584
    1DIPC   C1A21485  11.153   4.286   3.565  0.1891  0.0763  0.3675
    1DIPC   D2A21486  11.312   4.224   3.932 -0.1866 -0.0814  0.1128
    1DIPC   D3A21487  11.523   4.528   3.802 -0.2524 -0.2768  0.0386
    1DIPC   C4A21488  11.628   4.374   3.285  0.3349 -0.0808  0.0340
    1DIPC   C1B21489  10.779   4.366   3.812  0.1702  0.3995 -0.1256
    1DIPC   D2B21490  11.059   4.736   3.981  0.1700  0.0879  0.1261
    1DIPC   D3B21491  11.035   4.349   4.319  0.1696 -0.0083  0.1040
    1DIPC   C4B21492  11.171   3.910   4.269 -0.1371  0.1873  0.0454
    1DIPC   NC321493  21.248  17.676   1.862 -0.1601  0.2937 -0.0004
    1DIPC   PO421494  21.395  17.644   2.330 -0.2139  0.1979 -0.0530
    1DIPC   GL121495  21.375  17.392   2.739  0.0170 -0.0357  0.2530
    1DIPC   GL221496  21.195  17.495   2.949  0.1074 -0.2632 -0.0070
    1DIPC   C1A21497  21.693  17.596   3.064 -0.0439 -0.0889 -0.0752
    1DIPC   D2A21498  21.835  17.693   3.571 -0.2151  0.0096  0.1250
    1DIPC   D3A21499  22.221  17.900   3.861  0.0104 -0.2613  0.0638
    1DIPC   C4A21500  22.310  17.842   4.262 -0.1805  0.0669  0.1694
    1DIPC   C1B21501  20.907  17.248   3.239  0.0999 -0.0408  0.4014
    1DIPC   D2B21502  20.780  17.351   3.582 -0.1811 -0.0397 -0.0867
    1DIPC   D3B21503  20.904  17.795   3.412 -0.3523  0.3064 -0.0445
    1DIPC   C4B21504  20.575  18.102   3.255  0.1556  0.5623  0.1541
    1DIPC   NC321505  10.832  17.096   2.560  0.1353 -0.2353  0.1542
    1DIPC   PO421506  11.195  17.074   2.711  0.2169  0.1308  0.2800
    1DIPC   GL121507  11.264  17.263   3.092 -0.5150 -0.0652 -0.0263
    1DIPC   GL221508  11.331  17.064   3.432 -0.0059 -0.1831 -0.2283
    1DIPC   C1A21509  11.554  17.519   3.372  0.0327 -0.0168 -0.0448
    1DIPC   D2A21510  11.891  17.492   3.686  0.0880  0.2790  0.0880
    1DIPC   D3A21511  12.219  17.808   3.872  0.0170 -0.1753  0.0460
    1DIPC   C4A21512  12.367  18.113   4.204 -0.3611 -0.1494 -0.1874
    1DIPC   C1B21513  11.362  17.301   3.821  0.1104 -0.0236  0.1204
    1DIPC   D2B21514  11.339  17.305   4.315  0.0407 -0.2560 -0.2417
    1DIPC   D3B21515  11.783  17.510   4.326 -0.0001 -0.1198  0.1815
    1DIPC   C4B21516  12.088  17.254   4.133  0.0783  0.2496  0.0117
    1DIPC   NC321517  23.685   6.223   3.183  0.1328 -0.1151  0.0600
    1DIPC   PO421518  23.618   5.825   2.939  0.1156  0.1386 -0.2816
    1DIPC   GL121519  23.468   5.757   3.361  0.1626  0.2177 -0.0231
    1DIPC   GL221520  23.281   6.130   3.427  0.0275  0.2418 -0.0517
    1DIPC   C1A21521  23.521   5.608   3.782  0.1179  0.1267 -0.1913
    1DIPC   D2A21522  23.254   5.744   4.166 -0.3462 -0.0585  0.0989
    1DIPC   D3A21523  23.178   5.527   4.538 -0.1825 -0.0752 -0.1672
    1DIPC   C4A21524  23.427   5.278   4.780 -0.1331  0.1123 -0.2053
    1DIPC   C1B21525  23.406   6.208   3.819  0.3002 -0.1404 -0.3318
    1DIPC   D2B21526  23.339   6.329   4.254 -0.1172  0.1114  0.2126
    1DIPC   D3B21527  23.437   6.046   4.531  0.0532  0.1464 -0.0078
    1DIPC   C4B21528  23.657   5.647   4.536  0.2900  0.0757 -0.1491
    1DIPC   NC321529  25.555   9.295   2.213 -0.5314 -0.0102  0.1459
    1DIPC   PO421530  25.855   9.530   2.453  0.1954 -0.0870 -0.0446
    1DIPC   GL121531  25.488   9.475   2.715 -0.3903  0.2350 -0.1503
    1DIPC   GL221532  25.682   9.474   3.094 -0.4499  0.1344 -0.4151
    1DIPC   C1A21533  25.159   9.520   3.035  0.2298  0.2373 -0.4781
    1DIPC   D2A21534  24.939   9.597   3.438  0.0702 -0.0134  0.1561
    1DIPC   D3A21535  24.890   9.456   3.864 -0.1806  0.0863  0.0859
    1DIPC   C4A21536  24.810   9.033   3.965 -0.0158  0.0616  0.0244
    1DIPC   C1B21537  25.525   9.476   3.492  0.0085 -0.1077 -0.0603
    1DIPC   D2B21538  25.230   9.874   3.736 -0.0872 -0.0971  0.0465
    1DIPC   D3B21539  25.528  10.097   4.010  0.0807  0.1244  0.0649
    1DIPC   C4B21540  25.437  10.475   4.162 -0.4131  0.0591  0.0180
    1DIPC   NC321541   8.273  24.623   2.313  0.0410 -0.0346 -0.0228
    1DIPC   PO421542   7.799  24.385   2.308 -0.3160 -0.2054  0.3929
    1DIPC   GL121543   7.992  24.343   2.690 -0.2396 -0.0496 -0.1979
    1DIPC   GL221544   8.254  24.468   2.885  0.0596  0.2824  0.0719
    1DIPC   C1A21545   7.931  24.144   3.101 -0.0436 -0.4321  0.0525
    1DIPC   D2A21546   8.183  24.016   3.472  0.0707  0.2185  0.1620
    1DIPC   D3A21547   8.158  23.908   3.914 -0.1354 -0.2371 -0.0108
    1DIPC   C4A21548   7.925  23.548   4.173 -0.0571 -0.0887 -0.1491
    1DIPC   C1B21549   8.251  24.547   3.307  0.1406 -0.0492 -0.2805
    1DIPC   D2B21550   8.195  24.668   3.791 -0.0398  0.1255 -0.1235
    1DIPC   D3B21551   7.932  24.945   3.568  0.1040 -0.1827  0.0974
    1DIPC   C4B21552   7.573  25.120   3.511 -0.1500 -0.0324 -0.1823
    1DIPC   NC321553   9.973  17.233   2.839  0.1986  0.0712 -0.0063
    1DIPC   PO421554  10.296  17.163   2.563 -0.0345  0.3347  0.0492
    1DIPC   GL121555  10.409  17.073   3.080 -0.1677  0.2497 -0.0948
    1DIPC   GL221556  10.496  16.807   3.194 -0.2984 -0.0720  0.3225
    1DIPC   C1A21557  10.555  17.287   3.404 -0.1337 -0.1621  0.2895
    1DIPC   D2A21558  10.878  17.546   3.700 -0.0506  0.2967  0.2927
    1DIPC   D3A21559  10.851  17.280   4.043 -0.2168  0.0143 -0.0069
    1DIPC   C4A21560  10.786  17.237   4.305  0.0541  0.2303  0.0317
    1DIPC   C1B21561  10.352  16.581   3.612 -0.0900  0.0758  0.0586
    1DIPC   D2B21562  10.025  16.594   3.853 -0.0671  0.2361 -0.2360
    1DIPC   D3B21563   9.869  16.489   4.312 -0.1877  0.1200  0.4742
    1DIPC   C4B21564   9.445  16.604   4.445  0.0988 -0.0881  0.0507
    1DIPC   NC321565  13.458   9.715   2.848 -0.0616  0.2294 -0.2127
    1DIPC   PO421566  13.158   9.791   3.258 -0.3153  0.0728  0.0783
    1DIPC   GL121567  13.044   9.577   3.551 -0.0653 -0.0123  0.1840
    1DIPC   GL221568  13.305   9.372   3.626  0.1854  0.1036 -0.1430
    1DIPC   C1A21569  13.038   9.623   4.003  0.1684 -0.2491 -0.2277
    1DIPC   D2A21570  13.376   9.377   4.306 -0.2940  0.0353 -0.2423
    1DIPC   D3A21571  13.593   9.052   4.091  0.1014 -0.1340 -0.2435
    1DIPC   C4A21572  13.655   8.685   3.923 -0.1764  0.0746 -0.1354
    1DIPC   C1B21573  13.512   8.939   3.509 -0.0063 -0.1239 -0.2741
    1DIPC   D2B21574  13.507   8.408   3.442  0.1650 -0.3165 -0.1225
    1DIPC   D3B21575  13.309   8.313   3.765  0.1217  0.0791  0.0386
    1DIPC   C4B21576  13.502   8.232   4.109 -0.1200  0.2646  0.0070
    1DIPC   NC321577  20.129  27.065   3.100 -0.0534  0.0832  0.3630
    1DIPC   PO421578  19.837  26.811   3.312  0.1352 -0.1491 -0.1196
    1DIPC   GL121579  19.572  26.574   3.683 -0.1115 -0.2233  0.1814
    1DIPC   GL221580  19.398  26.811   3.561 -0.0863  0.0592  0.2843
    1DIPC   C1A21581  19.376  26.307   4.048 -0.2372  0.1476 -0.2105
    1DIPC   D2A21582  19.368  25.963   4.438  0.2008 -0.3430 -0.1575
    1DIPC   D3A21583  19.112  26.167   4.704  0.2286 -0.2337 -0.0459
    1DIPC   C4A21584  18.694  26.366   4.596 -0.0515 -0.3111 -0.1667
    1DIPC   C1B21585  19.071  26.854   3.893  0.0106  0.1279 -0.2557
    1DIPC   D2B21586  19.164  26.803   4.419  0.1681 -0.0013 -0.1945
    1DIPC   D3B21587  18.862  26.874   4.783  0.2771  0.0161 -0.0145
    1DIPC   C4B21588  18.450  26.870   4.589 -0.2034  0.0911 -0.4625
    1DIPC   NC321589  20.342   8.909   1.713  0.0229  0.1804  0.0084
    1DIPC   PO421590  20.220   8.845   2.099  0.1370 -0.1927  0.0367
    1DIPC   GL121591  20.003   8.864   2.563 -0.3624 -0.0748  0.1088
    1DIPC   GL221592  20.026   8.751   2.919  0.2333  0.0923 -0.3392
    1DIPC   C1A21593  19.941   9.257   2.854 -0.0917 -0.0784 -0.0540
    1DIPC   D2A21594  20.135   9.384   3.175 -0.1897  0.0503  0.2102
    1DIPC   D3A21595  19.931   9.738   3.257  0.0862  0.1173  0.0789
    1DIPC   C4A21596  20.223  10.187   3.257  0.1207  0.1316  0.2476
    1DIPC   C1B21597  20.376   9.018   2.932 -0.0194 -0.1791  0.3610
    1DIPC   D2B21598  20.836   9.031   2.937 -0.1884 -0.0599  0.0537
    1DIPC   D3B21599  20.769   9.201   3.394  0.4723 -0.0098  0.0218
    1DIPC   C4B21600  20.612   8.945   3.682 -0.3776  0.1445  0.1145
    1DIPC   NC321601  11.708   8.706   2.736  0.2347  0.0501  0.1251
    1DIPC   PO421602  12.063   8.514   2.935 -0.1262 -0.0036  0.3061
    1DIPC   GL121603  12.123   8.559   3.314  0.0120  0.1916 -0.0764
    1DIPC   GL221604  11.859   8.530   3.471 -0.1675  0.1504  0.2549
    1DIPC   C1A21605  12.169   8.474   3.820  0.0617  0.0340  0.1722
    1DIPC   D2A21606  12.424   8.129   3.959  0.1293  0.1669  0.1354
    1DIPC   D3A21607  12.467   8.461   4.273  0.0705 -0.3494  0.0445
    1DIPC   C4A21608  12.809   8.553   4.556 -0.3216  0.1499 -0.1383
    1DIPC   C1B21609  11.833   8.097   3.615  0.0391  0.3258  0.3009
    1DIPC   D2B21610  11.842   7.909   4.044  0.1695  0.0131 -0.3571
    1DIPC   D3B21611  11.994   8.263   4.237  0.0215 -0.2403  0.0345
    1DIPC   C4B21612  11.746   8.438   4.563 -0.1118  0.3850  0.1225
    1DIPC   NC321613   8.241   8.537   3.050  0.1152 -0.0971 -0.0545
    1DIPC   PO421614   8.509   8.983   3.013 -0.0059 -0.2063 -0.2185
    1DIPC   GL121615   8.314   8.940   3.440 -0.0453 -0.2197 -0.0667
    1DIPC   GL221616   8.222   8.637   3.596  0.0478  0.0245  0.2326
    1DIPC   C1A21617   8.436   9.028   3.870  0.2910 -0.0034 -0.1606
    1DIPC   D2A21618   8.477   9.260   4.187 -0.1485 -0.0233 -0.0069
    1DIPC   D3A21619   8.332   9.525   4.428  0.1266 -0.1240  0.0224
    1DIPC   C4A21620   8.384   9.840   4.604  0.2576 -0.3492  0.0082
    1DIPC   C1B21621   7.967   8.863   3.881 -0.0205  0.1735  0.2068
    1DIPC   D2B21622   8.007   9.145   4.341  0.0037 -0.2003 -0.0707
    1DIPC   D3B21623   7.617   9.058   4.199 -0.2244  0.1659 -0.2627
    1DIPC   C4B21624   7.455   9.191   3.882 -0.1719  0.1141 -0.1110
    1DIPC   NC321625  19.125  24.681   1.747 -0.1362  0.1591  0.1778
    1DIPC   PO421626  19.075  24.797   2.247  0.0543  0.0002  0.2355
    1DIPC   GL121627  18.961  24.656   2.568 -0.0269 -0.0179 -0.0575
    1DIPC   GL221628  19.283  24.466   2.699 -0.0691  0.2287  0.2041
    1DIPC   C1A21629  18.787  24.722   2.959  0.2924  0.0224  0.0319
    1DIPC   D2A21630  18.799  24.867   3.432 -0.2399  0.4468  0.3044
    1DIPC   D3A21631  18.738  24.446   3.538 -0.1792 -0.3567  0.2393
    1DIPC   C4A21632  18.882  24.421   3.915 -0.0728  0.0425 -0.1448
    1DIPC   C1B21633  19.189  24.553   3.124  0.0431 -0.0816 -0.1061
    1DIPC   D2B21634  19.260  24.620   3.559  0.3456 -0.1947  0.1387
    1DIPC   D3B21635  19.133  24.879   3.938  0.1629  0.3296  0.0538
    1DIPC   C4B21636  19.047  25.280   3.832 -0.2330  0.1102  0.1865
    1DIPC   NC321637   2.986   5.621   2.901  0.0024  0.0565 -0.0558
    1DIPC   PO421638   2.695   5.324   3.118 -0.0861 -0.1342  0.1865
    1DIPC   GL121639   2.468   5.202   3.420  0.1660  0.0132 -0.0788
    1DIPC   GL221640   2.428   5.509   3.630 -0.0218 -0.1347  0.1311
    1DIPC   C1A21641   2.650   5.199   3.959 -0.0374  0.0016 -0.2042
    1DIPC   D2A21642   2.475   5.383   4.360  0.1470 -0.0515 -0.0884
    1DIPC   D3A21643   2.238   5.172   4.576  0.0377  0.0867  0.0112
    1DIPC   C4A21644   2.321   4.967   4.984 -0.2696  0.4756  0.1547
    1DIPC   C1B21645   2.384   5.717   4.004  0.2030 -0.0479 -0.1641
    1DIPC   D2B21646   2.547   5.833   4.492 -0.0686 -0.1092 -0.2021
    1DIPC   D3B21647   2.441   6.301   4.671  0.2092 -0.0307 -0.2702
    1DIPC   C4B21648   2.560   6.720   4.730  0.1573  0.1897  0.0761
    1DIPC   NC321649   2.564   8.737   2.375  0.0354  0.2165 -0.2140
    1DIPC   PO421650   2.740   8.912   2.767  0.1997  0.0535  0.0292
    1DIPC   GL121651   2.874   8.837   3.200 -0.2035 -0.1329  0.0013
    1DIPC   GL221652   2.843   9.040   3.477 -0.0637 -0.0373 -0.0010
    1DIPC   C1A21653   2.795   8.474   3.546  0.0949 -0.0077 -0.1310
    1DIPC   D2A21654   3.014   8.617   3.895  0.0794  0.1722 -0.1563
    1DIPC   D3A21655   2.807   8.362   4.194 -0.0033 -0.1628  0.1576
    1DIPC   C4A21656   2.685   8.273   4.680  0.1210  0.0600  0.0084
    1DIPC   C1B21657   2.859   9.441   3.493 -0.2919  0.1630 -0.4677
    1DIPC   D2B21658   3.084   9.708   3.699  0.2756 -0.0226 -0.1129
    1DIPC   D3B21659   3.403   9.548   4.015 -0.1964 -0.1802 -0.2661
    1DIPC   C4B21660   3.175   9.249   4.377  0.2185 -0.2802  0.1018
    1DIPC   NC321661  15.700  13.297   3.072  0.1228  0.1870 -0.0826
    1DIPC   PO421662  15.712  13.158   3.466 -0.1801  0.1398  0.1520
    1DIPC   GL121663  15.377  12.998   3.893 -0.0807 -0.0228  0.0088
    1DIPC   GL221664  15.010  13.069   3.905  0.1354 -0.0949  0.1689
    1DIPC   C1A21665  15.582  12.888   4.274  0.0555  0.1387 -0.1105
    1DIPC   D2A21666  15.746  12.619   4.678  0.1149  0.2171 -0.0365
    1DIPC   D3A21667  15.607  12.555   5.034  0.2361 -0.2623  0.1777
    1DIPC   C4A21668  15.337  12.406   5.395  0.4364 -0.0864  0.1515
    1DIPC   C1B21669  15.225  13.261   4.335 -0.1745 -0.0620  0.1898
    1DIPC   D2B21670  15.381  13.483   4.714 -0.2637  0.1560  0.2496
    1DIPC   D3B21671  15.581  13.798   4.866 -0.2240  0.0209  0.1254
    1DIPC   C4B21672  15.982  13.841   4.654  0.0694  0.1809 -0.0113
    1DIPC   NC321673   2.878   7.065   2.133  0.1832  0.0220 -0.1650
    1DIPC   PO421674   2.664   7.418   2.391 -0.1432  0.1025 -0.0162
    1DIPC   GL121675   2.547   7.638   2.762 -0.2634 -0.3121 -0.1163
    1DIPC   GL221676   2.693   7.945   2.926 -0.0005 -0.0848  0.1178
    1DIPC   C1A21677   2.469   7.574   3.186  0.0673 -0.1414 -0.1758
    1DIPC   D2A21678   2.097   7.365   3.388  0.2454 -0.2374  0.2860
    1DIPC   D3A21679   2.112   7.460   3.837  0.0763  0.1762  0.0433
    1DIPC   C4A21680   2.115   7.173   4.211  0.0245 -0.0138  0.2332
    1DIPC   C1B21681   3.064   8.122   3.087  0.0807  0.1511  0.0351
    1DIPC   D2B21682   3.385   7.844   3.431 -0.0242  0.0187 -0.0087
    1DIPC   D3B21683   3.193   8.070   3.785  0.1492 -0.0946  0.1938
    1DIPC   C4B21684   3.361   8.349   4.108 -0.2446 -0.0405  0.2415
    1DIPC   NC321685  21.868  29.338   3.477  0.1493  0.2145  0.0471
    1DIPC   PO421686  22.287  29.319   3.637 -0.1866 -0.4292  0.3878
    1DIPC   GL121687  22.551  29.255   3.963 -0.0445 -0.1569 -0.0906
    1DIPC   GL221688  22.586  29.640   3.894  0.1481 -0.0191 -0.0848
    1DIPC   C1A21689  22.697  29.205   4.353 -0.2174  0.2867 -0.2424
    1DIPC   D2A21690  22.760  29.602   4.585 -0.1877  0.0811 -0.1253
    1DIPC   D3A21691  23.128  29.512   4.822 -0.2857  0.2602  0.1060
    1DIPC   C4A21692  23.258  29.082   4.816  0.1743 -0.1602  0.2950
    1DIPC   C1B21693  22.935  29.576   4.085 -0.0155 -0.0665 -0.0271
    1DIPC   D2B21694  23.320  29.463   4.353 -0.0345  0.4603 -0.0746
    1DIPC   D3B21695  23.644  29.543   4.616 -0.1809 -0.0823  0.0951
    1DIPC   C4B21696  24.033  29.298   4.439  0.1640 -0.0694 -0.2352
    1DIPC   NC321697  14.352  24.011   2.486 -0.0176  0.0970 -0.0389
    1DIPC   PO421698  14.379  23.883   2.912  0.1785  0.1910 -0.3084
    1DIPC   GL121699  14.388  24.095   3.300  0.1883 -0.1661  0.0172
    1DIPC   GL221700  14.321  24.458   3.269 -0.0706 -0.2115  0.1907
    1DIPC   C1A21701  14.613  23.897   3.568 -0.2459  0.0824  0.0241
    1DIPC   D2A21702  14.886  23.847   3.916 -0.1641  0.1707 -0.1484
    1DIPC   D3A21703  15.312  24.058   3.936  0.0605  0.2826 -0.0045
    1DIPC   C4A21704  15.640  24.093   4.321  0.1113 -0.1539  0.0908
    1DIPC   C1B21705  14.280  24.286   3.705 -0.0242 -0.2335  0.2454
    1DIPC   D2B21706  14.495  24.178   4.063  0.1840 -0.4962  0.1041
    1DIPC   D3B21707  14.557  23.973   4.379  0.1508  0.0480  0.0358
    1DIPC   C4B21708  14.322  23.858   4.584  0.1445  0.1883 -0.0122
    1DIPC   NC321709   2.063  26.064   3.181  0.2188 -0.1529  0.0344
    1DIPC   PO421710   1.695  26.373   3.043 -0.0382 -0.1980  0.0152
    1DIPC   GL121711   1.728  26.334   3.464  0.2325  0.1451  0.1012
    1DIPC   GL221712   1.582  26.321   3.743 -0.2115 -0.1231  0.0540
    1DIPC   C1A21713   2.031  26.447   3.868  0.0521 -0.1652  0.0063
    1DIPC   D2A21714   2.384  26.634   4.116 -0.0619 -0.1057 -0.0929
    1DIPC   D3A21715   2.317  26.673   4.563 -0.1608  0.1350  0.0483
    1DIPC   C4A21716   2.727  26.615   4.883  0.0602  0.2191 -0.1601
    1DIPC   C1B21717   1.552  26.221   4.194 -0.0851  0.3640 -0.0800
    1DIPC   D2B21718   1.556  26.089   4.609 -0.0097 -0.0294 -0.2491
    1DIPC   D3B21719   1.779  26.141   4.949 -0.0835 -0.0297 -0.0662
    1DIPC   C4B21720   1.710  25.970   5.323 -0.2471  0.1377 -0.0839
    1DIPC   NC321721  15.739  15.935   3.002  0.1555  0.3613  0.0720
    1DIPC   PO421722  15.742  16.423   2.921  0.2061  0.1410  0.1979
    1DIPC   GL121723  15.740  16.533   3.345  0.0174 -0.1657  0.2113
    1DIPC   GL221724  16.011  16.505   3.621 -0.0842  0.0673 -0.1935
    1DIPC   C1A21725  15.726  16.933   3.524 -0.1665 -0.1287 -0.2531
    1DIPC   D2A21726  16.014  17.063   3.849  0.0220 -0.1661 -0.0719
    1DIPC   D3A21727  15.861  16.928   4.166  0.0156 -0.0251 -0.1133
    1DIPC   C4A21728  15.829  16.557   4.129 -0.0382 -0.2825  0.1125
    1DIPC   C1B21729  16.292  16.611   4.041 -0.0578  0.0154  0.1998
    1DIPC   D2B21730  16.353  16.967   4.239 -0.0282 -0.2936  0.1586
    1DIPC   D3B21731  16.549  16.963   3.814 -0.0398 -0.1071  0.4405
    1DIPC   C4B21732  16.829  17.299   3.805 -0.1381  0.1078 -0.1571
    1DIPC   NC321733   4.919  25.004   2.963 -0.0498 -0.0453 -0.1516
    1DIPC   PO421734   4.555  24.972   2.999  0.2457  0.0243  0.0394
    1DIPC   GL121735   4.512  24.884   3.502  0.1127 -0.3855 -0.0723
    1DIPC   GL221736   4.850  24.922   3.481  0.0065 -0.0626  0.4427
    1DIPC   C1A21737   4.477  24.821   3.943 -0.3942 -0.0178  0.1298
    1DIPC   D2A21738   4.390  24.516   4.129 -0.2709  0.0131  0.0256
    1DIPC   D3A21739   4.642  24.870   4.375 -0.1952 -0.0336  0.0320
    1DIPC   C4A21740   4.541  25.093   4.728  0.1691  0.1563  0.1376
    1DIPC   C1B21741   4.964  24.716   3.809  0.1983  0.2125 -0.3424
    1DIPC   D2B21742   4.933  24.329   4.134  0.0248  0.1051  0.0879
    1DIPC   D3B21743   5.275  24.353   3.889 -0.1086  0.0831  0.1244
    1DIPC   C4B21744   5.209  24.410   3.526  0.3119  0.1501  0.0453
    1DIPC   NC321745  18.136   8.337   1.801 -0.0343  0.2425 -0.0540
    1DIPC   PO421746  17.876   8.241   2.202 -0.5143 -0.0952  0.2090
    1DIPC   GL121747  18.198   8.237   2.568 -0.0650 -0.0390  0.2952
    1DIPC   GL221748  18.037   7.888   2.756  0.0141  0.3138  0.1283
    1DIPC   C1A21749  18.619   7.998   2.718  0.2536 -0.0256 -0.1122
    1DIPC   D2A21750  18.883   7.688   2.859  0.0316 -0.2303  0.1818
    1DIPC   D3A21751  18.776   7.532   3.343  0.1305  0.0709  0.3210
    1DIPC   C4A21752  19.027   7.469   3.724 -0.0092  0.2377 -0.3424
    1DIPC   C1B21753  18.288   7.743   3.049 -0.0735  0.3653  0.0317
    1DIPC   D2B21754  18.248   7.832   3.444 -0.1182 -0.2195  0.2107
    1DIPC   D3B21755  18.034   7.565   3.786  0.2505  0.0686  0.0956
    1DIPC   C4B21756  17.820   7.237   3.595 -0.2198  0.2057  0.2333
    1DIPC   NC321757  23.894  20.972   2.033 -0.0310 -0.0595  0.1515
    1DIPC   PO421758  24.038  20.625   1.978  0.0159  0.2517  0.1058
    1DIPC   GL121759  23.841  20.595   2.514  0.0140  0.0256 -0.3120
    1DIPC   GL221760  23.919  20.252   2.552  0.1928 -0.1346  0.1348
    1DIPC   C1A21761  23.718  20.606   2.936 -0.1879 -0.1951  0.1779
    1DIPC   D2A21762  23.314  20.621   3.091 -0.0090  0.0809 -0.0666
    1DIPC   D3A21763  23.305  21.049   3.319  0.1493 -0.1384 -0.1453
    1DIPC   C4A21764  23.257  21.438   3.113 -0.1667 -0.0210 -0.2690
    1DIPC   C1B21765  24.171  20.323   2.816 -0.0192  0.0881 -0.2189
    1DIPC   D2B21766  24.285  20.606   3.135 -0.0121 -0.1778 -0.0132
    1DIPC   D3B21767  24.242  20.247   3.402 -0.1638 -0.0203 -0.0944
    1DIPC   C4B21768  24.151  20.319   3.888 -0.3433 -0.0111  0.0105
    1DIPC   NC321769  25.782   7.684   2.709  0.1116 -0.1098 -0.1322
    1DIPC   PO421770  25.950   7.231   2.759 -0.2519 -0.2824  0.1499
    1DIPC   GL121771  26.137   7.500   3.037  0.1306  0.0676 -0.0017
    1DIPC   GL221772  26.020   7.471   3.272 -0.2575  0.2630  0.0198
    1DIPC   C1A21773  26.077   7.973   3.217 -0.0431  0.1714 -0.1693
    1DIPC   D2A21774  25.989   8.088   3.566 -0.0979  0.1945 -0.2532
    1DIPC   D3A21775  25.970   7.739   3.895 -0.0937 -0.1003  0.0873
    1DIPC   C4A21776  25.764   7.771   4.237  0.0915 -0.1475  0.1157
    1DIPC   C1B21777  26.343   7.701   3.571 -0.1198 -0.2187  0.0522
    1DIPC   D2B21778  26.454   7.638   4.021 -0.2325 -0.1553 -0.0357
    1DIPC   D3B21779  26.650   7.328   3.694  0.2512  0.0597 -0.1152
    1DIPC   C4B21780  26.648   6.928   3.643 -0.1006 -0.0133 -0.4263
    1DIPC   NC321781  26.422  26.411   3.149 -0.1586 -0.1772  0.0253
    1DIPC   PO421782  26.430  26.574   3.578 -0.0645 -0.5137 -0.4775
    1DIPC   GL121783  26.414  26.595   3.894  0.0451  0.1287  0.4029
    1DIPC   GL221784  26.394  26.856   4.134  0.0806 -0.0032 -0.0053
    1DIPC   C1A21785  26.326  26.395   4.287 -0.1814  0.0837  0.2506
    1DIPC   D2A21786  26.383  25.939   4.589 -0.2124  0.1240  0.3208
    1DIPC   D3A21787  26.801  25.745   4.526  0.0307 -0.0882  0.2605
    1DIPC   C4A21788  26.843  25.542   4.047  0.0699  0.3392  0.3520
    1DIPC   C1B21789  26.584  26.811   4.588 -0.0362 -0.0659  0.1055
    1DIPC   D2B21790  26.752  27.008   4.941  0.1373 -0.3075  0.3315
    1DIPC   D3B21791  27.100  26.775   5.128  0.1015  0.1607  0.4247
    1DIPC   C4B21792  27.044  26.399   4.888  0.1458  0.0555 -0.1383
    1DIPC   NC321793  11.798  27.666   2.306 -0.1707 -0.1512  0.1414
    1DIPC   PO421794  11.504  27.867   2.662 -0.2789 -0.3626  0.1987
    1DIPC   GL121795  11.700  27.769   3.029  0.0698  0.2454 -0.2151
    1DIPC   GL221796  11.617  28.045   3.273 -0.1151  0.1822 -0.3294
    1DIPC   C1A21797  12.094  27.556   3.243  0.1674  0.0638 -0.1417
    1DIPC   D2A21798  12.447  27.758   3.491 -0.0372 -0.1982  0.1191
    1DIPC   D3A21799  12.141  28.007   3.677 -0.0106  0.4665  0.0724
    1DIPC   C4A21800  12.026  27.641   3.925 -0.0376 -0.0767  0.0268
    1DIPC   C1B21801  11.577  28.066   3.740  0.2390  0.1978 -0.0864
    1DIPC   D2B21802  11.360  28.113   4.217 -0.2179 -0.2941  0.0989
    1DIPC   D3B21803  11.613  27.776   4.143  0.1544  0.2938 -0.0120
    1DIPC   C4B21804  12.022  27.974   4.316  0.1588  0.0169  0.3016
    1DIPC   NC321805   6.890  10.390   2.120 -0.1441  0.4103  0.0982
    1DIPC   PO421806   6.804  10.171   2.560 -0.5029  0.0813  0.1297
    1DIPC   GL121807   6.920  10.281   2.976 -0.1975  0.2380 -0.0006
    1DIPC   GL221808   6.881  10.619   3.082  0.0272 -0.0679  0.0225
    1DIPC   C1A21809   7.111  10.213   3.318  0.1278  0.1144 -0.5241
    1DIPC   D2A21810   7.172  10.150   3.677 -0.1762  0.0600  0.4045
    1DIPC   D3A21811   7.135  10.304   4.063 -0.2107 -0.2016  0.1585
    1DIPC   C4A21812   7.191  10.142   4.491  0.0743 -0.2822  0.3822
    1DIPC   C1B21813   7.229  10.677   3.353 -0.2773  0.1276  0.1250
    1DIPC   D2B21814   7.559  10.395   3.629 -0.0523 -0.1933  0.1647
    1DIPC   D3B21815   7.343  10.763   3.839 -0.0255 -0.1260 -0.1513
    1DIPC   C4B21816   7.584  11.071   4.037  0.0065  0.4721 -0.1153
    1DIPC   NC321817   1.263  29.543   3.438  0.0683 -0.0035 -0.2094
    1DIPC   PO421818   1.419  29.939   3.653  0.0012 -0.1388  0.1796
    1DIPC   GL121819   1.420   0.122   3.895 -0.0597 -0.3090  0.1105
    1DIPC   GL221820   1.258   0.007   4.192  0.2091 -0.3135 -0.1660
    1DIPC   C1A21821   1.674   0.248   4.261 -0.1728 -0.1239 -0.2354
    1DIPC   D2A21822   2.086   0.532   4.383  0.2213  0.0374  0.2264
    1DIPC   D3A21823   2.073   0.581   4.809 -0.2034  0.0015 -0.0786
    1DIPC   C4A21824   2.120   0.787   5.062 -0.0931  0.0967 -0.0033
    1DIPC   C1B21825   1.177  30.300   4.725  0.1323  0.3946 -0.1311
    1DIPC   D2B21826   1.084   0.086   5.081  0.1141  0.0134  0.0301
    1DIPC   D3B21827   0.672   0.007   5.153 -0.0923  0.1803  0.2091
    1DIPC   C4B21828   0.388  30.208   4.922  0.0579 -0.1510  0.2272
    1DIPC   NC321829  11.276  21.133   2.265  0.2155 -0.0726  0.1127
    1DIPC   PO421830  11.078  21.439   2.261  0.2664 -0.0170 -0.1593
    1DIPC   GL121831  11.251  21.438   2.744  0.1077  0.0354  0.3031
    1DIPC   GL221832  11.536  21.293   2.836  0.0633  0.0176  0.1207
    1DIPC   C1A21833  11.160  21.255   3.181  0.2162  0.1118  0.1659
    1DIPC   D2A21834  11.197  21.232   3.706  0.0860 -0.2740 -0.1768
    1DIPC   D3A21835  10.714  21.134   3.766 -0.1215 -0.1076 -0.1490
    1DIPC   C4A21836  10.334  21.512   3.746 -0.0631 -0.2565  0.1696
    1DIPC   C1B21837  11.640  21.663   3.097  0.1606 -0.3727 -0.1532
    1DIPC   D2B21838  11.924  21.818   3.423 -0.2690 -0.0237 -0.2419
    1DIPC   D3B21839  11.895  21.523   3.749 -0.1664  0.2847  0.1416
    1DIPC   C4B21840  12.193  21.526   3.989  0.0277 -0.3618  0.2598
    1DIPC   NC321841  22.009  13.299   2.261  0.0301 -0.0010  0.2574
    1DIPC   PO421842  22.200  13.717   2.477  0.2435  0.1756  0.2570
    1DIPC   GL121843  22.192  13.493   2.825  0.2667  0.0712 -0.1761
    1DIPC   GL221844  22.275  13.096   2.817  0.0839  0.0012 -0.2462
    1DIPC   C1A21845  21.929  13.377   3.103 -0.2349 -0.2696  0.0565
    1DIPC   D2A21846  22.124  13.471   3.488  0.1877  0.0334 -0.2661
    1DIPC   D3A21847  21.779  13.217   3.530  0.0043  0.2378 -0.4276
    1DIPC   C4A21848  21.484  13.262   3.842  0.0420 -0.3088 -0.0065
    1DIPC   C1B21849  22.248  12.994   3.292  0.0866  0.2407  0.0402
    1DIPC   D2B21850  22.566  12.716   3.536  0.0845  0.0117 -0.1489
    1DIPC   D3B21851  22.507  12.304   3.657 -0.1776 -0.0442 -0.0994
    1DIPC   C4B21852  22.741  11.993   3.828 -0.0186 -0.3527 -0.2164
    1DIPC   NC321853  24.419  22.125   2.086  0.0797  0.2750  0.1180
    1DIPC   PO421854  24.492  22.240   2.480 -0.0150 -0.1987  0.2495
    1DIPC   GL121855  24.407  22.299   2.959 -0.2095 -0.0585  0.0800
    1DIPC   GL221856  24.301  21.945   2.898  0.0624 -0.0270  0.0773
    1DIPC   C1A21857  24.268  22.263   3.346  0.1088  0.1669  0.4414
    1DIPC   D2A21858  23.951  21.947   3.601  0.1425  0.1164  0.1931
    1DIPC   D3A21859  24.166  21.855   3.919 -0.1757  0.0096  0.0253
    1DIPC   C4A21860  24.150  22.069   4.386 -0.1297 -0.5386 -0.0652
    1DIPC   C1B21861  24.617  21.832   3.143  0.3552 -0.0972  0.3724
    1DIPC   D2B21862  24.905  21.536   3.161 -0.1499  0.0294 -0.4649
    1DIPC   D3B21863  25.175  21.856   2.978  0.0062  0.1001  0.1063
    1DIPC   C4B21864  25.593  21.835   2.707 -0.0309 -0.0833 -0.3049
    1DIPC   NC321865  19.419  24.023   2.526 -0.3062  0.3908  0.1373
    1DIPC   PO421866  19.219  23.649   2.348 -0.0427  0.2684  0.1732
    1DIPC   GL121867  19.544  23.523   2.673 -0.0243  0.3521  0.1012
    1DIPC   GL221868  19.846  23.425   2.650  0.0817  0.0130  0.3821
    1DIPC   C1A21869  19.579  23.194   3.047 -0.1294  0.1453 -0.1937
    1DIPC   D2A21870  19.318  22.872   3.175 -0.0687  0.0763 -0.0263
    1DIPC   D3A21871  19.246  23.105   3.530  0.1973  0.1804 -0.0223
    1DIPC   C4A21872  19.541  23.124   3.905 -0.3548  0.0545 -0.0950
    1DIPC   C1B21873  20.050  23.227   3.012  0.1018 -0.1681 -0.1261
    1DIPC   D2B21874  20.465  23.169   3.234  0.0261  0.1367 -0.3146
    1DIPC   D3B21875  20.494  23.621   3.282  0.2325  0.2674 -0.0640
    1DIPC   C4B21876  20.657  23.831   2.991  0.1012  0.0376 -0.0350
    1DIPC   NC321877  17.773   9.350   1.858  0.0559  0.0299 -0.1531
    1DIPC   PO421878  18.093   9.093   2.201 -0.0455 -0.1895  0.2881
    1DIPC   GL121879  18.081   9.028   2.669  0.0076 -0.0724  0.0399
    1DIPC   GL221880  18.217   8.780   2.803 -0.2004 -0.0049  0.4782
    1DIPC   C1A21881  17.856   9.183   3.087 -0.1131  0.3097  0.1075
    1DIPC   D2A21882  17.892   9.361   3.413 -0.1083  0.0181 -0.0673
    1DIPC   D3A21883  18.256   9.139   3.663  0.1780  0.2172 -0.2022
    1DIPC   C4A21884  18.607   8.970   3.497  0.1733  0.1946  0.0908
    1DIPC   C1B21885  18.332   8.767   3.180 -0.2632  0.0448 -0.1214
    1DIPC   D2B21886  18.417   8.417   3.450  0.0174  0.0734 -0.0201
    1DIPC   D3B21887  18.212   8.623   3.823 -0.1298 -0.1682 -0.0012
    1DIPC   C4B21888  17.876   8.878   3.551 -0.0170  0.0501 -0.2514
    1DIPC   NC321889  11.114   8.653   2.811 -0.1153  0.0576 -0.0433
    1DIPC   PO421890  10.932   8.949   2.891  0.4494  0.0922 -0.3572
    1DIPC   GL121891  10.954   8.891   3.360  0.0454 -0.1629 -0.2401
    1DIPC   GL221892  11.069   9.094   3.592 -0.0364  0.2027 -0.2213
    1DIPC   C1A21893  10.674   8.804   3.743  0.1062  0.0512 -0.2462
    1DIPC   D2A21894  10.498   8.822   4.238  0.1034 -0.1502 -0.2126
    1DIPC   D3A21895  10.228   8.518   4.363 -0.0142 -0.0177  0.1714
    1DIPC   C4A21896   9.967   8.369   3.979  0.1156  0.0020 -0.1552
    1DIPC   C1B21897  11.036   9.023   4.075  0.4319  0.1047  0.0792
    1DIPC   D2B21898  10.810   9.189   4.501  0.0967  0.1581 -0.4088
    1DIPC   D3B21899  10.854   9.166   4.965 -0.0609 -0.2285  0.2983
    1DIPC   C4B21900  11.136   8.845   5.027  0.0447  0.1619 -0.0814
    1DIPC   NC321901   1.659   4.986   3.297 -0.0906 -0.0212 -0.0043
    1DIPC   PO421902   1.782   4.487   3.113  0.1386  0.2042  0.0241
    1DIPC   GL121903   1.746   4.601   3.593 -0.1513 -0.2931  0.0941
    1DIPC   GL221904   1.750   4.411   3.839 -0.1039  0.0654  0.0042
    1DIPC   C1A21905   2.029   4.994   3.846 -0.2236  0.0376 -0.0897
    1DIPC   D2A21906   2.057   5.306   4.135 -0.0345  0.0010  0.0625
    1DIPC   D3A21907   1.599   5.407   4.120 -0.1161 -0.2708 -0.0844
    1DIPC   C4A21908   1.366   5.109   3.921  0.1226  0.0838 -0.0066
    1DIPC   C1B21909   1.588   4.731   4.123  0.1347 -0.2307 -0.0287
    1DIPC   D2B21910   1.204   4.814   4.348 -0.0753 -0.0910 -0.0517
    1DIPC   D3B21911   1.102   5.265   4.349  0.0339 -0.1429  0.0673
    1DIPC   C4B21912   1.352   5.593   4.645 -0.2263  0.0103 -0.1649
    1DIPC   NC321913   3.451   6.002   3.035 -0.0835  0.0440  0.0098
    1DIPC   PO421914   3.494   5.544   3.167  0.2476  0.0759 -0.1457
    1DIPC   GL121915   3.212   5.209   3.319 -0.3802  0.0907 -0.2190
    1DIPC   GL221916   2.943   5.146   3.576  0.1254 -0.0075 -0.0933
    1DIPC   C1A21917   3.293   4.799   3.560  0.2858  0.0249  0.0337
    1DIPC   D2A21918   3.421   4.801   4.036 -0.0434 -0.2023  0.1029
    1DIPC   D3A21919   3.610   5.201   4.173  0.2095 -0.0847 -0.5229
    1DIPC   C4A21920   3.674   5.324   4.650  0.0869 -0.1225  0.2015
    1DIPC   C1B21921   3.069   5.399   3.868  0.0048 -0.2295 -0.3261
    1DIPC   D2B21922   2.985   5.407   4.378 -0.0449 -0.0401  0.0336
    1DIPC   D3B21923   3.046   4.923   4.376 -0.3117 -0.0231  0.0336
    1DIPC   C4B21924   2.929   4.757   3.940  0.0465  0.0386 -0.1096
    1DIPC   NC321925  17.409  24.886   2.409  0.1443  0.0453 -0.2680
    1DIPC   PO421926  17.495  25.023   2.788  0.2001  0.2866 -0.1544
    1DIPC   GL121927  17.212  25.099   3.129  0.0897 -0.3782  0.1512
    1DIPC   GL221928  17.405  24.774   3.289 -0.0691  0.3534  0.0429
    1DIPC   C1A21929  17.166  25.232   3.575  0.3104  0.1279  0.0843
    1DIPC   D2A21930  17.434  25.355   3.868 -0.0027  0.2670 -0.0906
    1DIPC   D3A21931  17.416  24.874   3.815 -0.1211  0.1024  0.0410
    1DIPC   C4A21932  17.085  24.564   4.046 -0.1926 -0.3406  0.2056
    1DIPC   C1B21933  17.080  24.782   3.463 -0.0390  0.1161 -0.1570
    1DIPC   D2B21934  16.857  25.011   3.880  0.0650  0.1901 -0.1782
    1DIPC   D3B21935  17.250  24.985   4.264  0.0580 -0.0426 -0.1368
    1DIPC   C4B21936  17.350  25.356   4.449 -0.1670 -0.0748 -0.1106
    1DIPC   NC321937   6.279   1.992   3.670 -0.1664 -0.1849  0.0017
    1DIPC   PO421938   6.052   1.601   3.728  0.1384  0.1597 -0.1007
    1DIPC   GL121939   6.283   1.468   4.096 -0.1692 -0.0869 -0.1329
    1DIPC   GL221940   5.990   1.275   4.208 -0.0297  0.0733 -0.2519
    1DIPC   C1A21941   6.561   1.445   4.424  0.2081  0.1082 -0.0368
    1DIPC   D2A21942   6.814   1.164   4.537 -0.2357 -0.0721 -0.2164
    1DIPC   D3A21943   6.682   1.243   4.998  0.0406 -0.2676  0.0460
    1DIPC   C4A21944   6.865   1.447   5.321  0.0245  0.2894  0.1169
    1DIPC   C1B21945   5.937   1.606   4.411  0.2463 -0.0686 -0.2022
    1DIPC   D2B21946   5.832   1.764   4.843  0.1470  0.1246 -0.0631
    1DIPC   D3B21947   5.518   1.440   5.000  0.1388 -0.3126  0.1200
    1DIPC   C4B21948   5.211   1.454   5.333  0.1512 -0.1382 -0.1658
    1DIPC   NC321949  14.618   2.631   2.405  0.1313  0.2510  0.0880
    1DIPC   PO421950  14.721   2.673   2.905 -0.0566 -0.1507  0.0583
    1DIPC   GL121951  14.596   2.253   3.064  0.1034 -0.0083 -0.1071
    1DIPC   GL221952  14.345   2.220   3.190  0.0007  0.1589 -0.0796
    1DIPC   C1A21953  14.902   1.973   3.089  0.0972 -0.1934 -0.0083
    1DIPC   D2A21954  15.359   1.940   3.025  0.1262  0.0837  0.0239
    1DIPC   D3A21955  15.614   1.805   3.371  0.0052 -0.1208 -0.0038
    1DIPC   C4A21956  15.985   1.661   3.357 -0.3053  0.2718  0.2253
    1DIPC   C1B21957  14.587   2.044   3.576  0.1817 -0.0381  0.0821
    1DIPC   D2B21958  14.884   2.291   3.900 -0.0011 -0.0285 -0.1966
    1DIPC   D3B21959  14.775   2.162   4.204 -0.1978 -0.2347 -0.3207
    1DIPC   C4B21960  14.833   1.840   4.443 -0.1981 -0.2315 -0.1728
    1DIPC   NC321961  15.168  11.327   3.173  0.4606 -0.1680  0.2883
    1DIPC   PO421962  14.795  11.240   3.122 -0.1140  0.4153 -0.0506
    1DIPC   GL121963  14.983  11.053   3.529  0.1487  0.1280  0.0928
    1DIPC   GL221964  15.115  10.752   3.397  0.0892 -0.0071  0.2560
    1DIPC   C1A21965  15.019  11.013   3.966  0.3963  0.0277 -0.3091
    1DIPC   D2A21966  15.073  11.033   4.466  0.1781 -0.0544 -0.2045
    1DIPC   D3A21967  14.660  11.102   4.306 -0.1453 -0.6229  0.0217
    1DIPC   C4A21968  14.437  11.391   4.244 -0.0131 -0.1475  0.0144
    1DIPC   C1B21969  15.382  10.816   3.735 -0.0499  0.1643 -0.1164
    1DIPC   D2B21970  15.636  10.963   4.028  0.0613 -0.2815 -0.0106
    1DIPC   D3B21971  15.791  10.579   3.970  0.1857 -0.0618 -0.1948
    1DIPC   C4B21972  15.686  10.289   4.282  0.0499  0.0845  0.3107
    1DIPC   NC321973  22.198  29.841   2.963  0.1776 -0.1779  0.1768
    1DIPC   PO421974  22.151  29.713   3.341 -0.0958  0.1621 -0.2702
    1DIPC   GL121975  22.014  29.694   3.816  0.2564  0.1055 -0.1745
    1DIPC   GL221976  21.911  29.496   3.940  0.0438 -0.2208 -0.0663
    1DIPC   C1A21977  22.229  29.507   4.307 -0.0213 -0.1622  0.2623
    1DIPC   D2A21978  22.168  29.765   4.662 -0.1817  0.2645 -0.0874
    1DIPC   D3A21979  22.422  29.997   4.643  0.2350  0.1553  0.1029
    1DIPC   C4A21980  22.789  29.973   4.971  0.0370 -0.4788 -0.0951
    1DIPC   C1B21981  21.601  29.572   4.140  0.2447 -0.4158 -0.0311
    1DIPC   D2B21982  21.483  29.732   4.522 -0.5476  0.1132 -0.3107
    1DIPC   D3B21983  21.082  29.900   4.587  0.4046  0.0015  0.1967
    1DIPC   C4B21984  20.721  29.854   4.731 -0.1783  0.0690  0.0097
    1DIPC   NC321985  23.061  29.257   2.985  0.2584  0.0931  0.1748
    1DIPC   PO421986  23.093  29.642   3.347  0.2113 -0.1186  0.0815
    1DIPC   GL121987  23.015  29.941   3.683  0.3295 -0.3968  0.0564
    1DIPC   GL221988  23.206  30.086   3.643 -0.2236 -0.2697 -0.2618
    1DIPC   C1A21989  23.380  30.026   4.068  0.0470  0.0847  0.0181
    1DIPC   D2A21990  23.389  30.001   4.463 -0.0700  0.0993 -0.1165
    1DIPC   D3A21991  23.933  30.061   4.411  0.2422 -0.0508 -0.0937
    1DIPC   C4A21992  24.100  30.177   4.805 -0.2643  0.0449 -0.1189
    1DIPC   C1B21993  23.532   0.092   3.619 -0.1351 -0.4269  0.2048
    1DIPC   D2B21994  23.962   0.175   3.650 -0.1912 -0.2057  0.0313
    1DIPC   D3B21995  24.270   0.074   3.994 -0.0544  0.0162 -0.1800
    1DIPC   C4B21996  24.391  30.114   4.207  0.0991 -0.2871 -0.0676
    1DIPC   NC321997  15.593  18.184   2.620  0.0519 -0.4177  0.0115
    1DIPC   PO421998  15.320  17.856   2.698  0.1428  0.1068  0.3415
    1DIPC   GL121999  15.172  17.830   3.056 -0.0297  0.2656  0.3312
    1DIPC   GL222000  15.025  17.563   3.043 -0.0368  0.0015  0.0029
    1DIPC   C1A22001  14.975  18.022   3.450  0.1776  0.1697  0.0452
    1DIPC   D2A22002  14.885  18.281   3.852  0.1796  0.0570 -0.1177
    1DIPC   D3A22003  15.299  18.001   3.892  0.2555 -0.0396  0.2256
    1DIPC   C4A22004  15.719  18.114   3.749 -0.0639  0.2327  0.3251
    1DIPC   C1B22005  14.963  17.494   3.522 -0.2357  0.0831  0.1182
    1DIPC   D2B22006  14.901  17.716   3.951  0.2214 -0.1875 -0.0889
    1DIPC   D3B22007  15.173  17.897   4.399  0.1053  0.1027 -0.2481
    1DIPC   C4B22008  15.541  18.143   4.401  0.3461 -0.0558  0.0819
    1DIPC   NC322009  10.569   6.632   2.258  0.2993 -0.1201 -0.1761
    1DIPC   PO422010  10.425   6.379   2.570  0.0595 -0.3438 -0.1113
    1DIPC   GL122011  10.633   6.471   2.955  0.0972 -0.0271  0.0711
    1DIPC   GL222012  10.456   6.644   3.115  0.0556  0.2862 -0.4551
    1DIPC   C1A22013  10.990   6.732   3.091 -0.0925  0.1502 -0.3458
    1DIPC   D2A22014  11.071   7.194   2.934 -0.0962  0.0385  0.1661
    1DIPC   D3A22015  11.279   7.301   3.243  0.0854 -0.0938 -0.1860
    1DIPC   C4A22016  11.221   7.768   3.299  0.0725  0.0802  0.4553
    1DIPC   C1B22017  10.191   6.384   3.369 -0.0764 -0.0775  0.1822
    1DIPC   D2B22018   9.938   6.033   3.308  0.1497  0.1342  0.3326
    1DIPC   D3B22019   9.740   5.857   3.677  0.0449 -0.2645 -0.2213
    1DIPC   C4B22020  10.002   6.007   4.016  0.0609 -0.0869  0.0423
    1DIPC   NC322021  27.687  24.640   2.953 -0.2647  0.3395 -0.0239
    1DIPC   PO422022  27.384  24.214   3.025 -0.1597 -0.0969 -0.2699
    1DIPC   GL122023  27.667  23.846   3.280 -0.2834 -0.0368  0.1098
    1DIPC   GL222024  28.049  23.627   3.147  0.1354 -0.2546 -0.1088
    1DIPC   C1A22025  27.549  23.504   3.500  0.1335 -0.2858 -0.0777
    1DIPC   D2A22026  27.263  23.374   3.771 -0.0254  0.4076 -0.1476
    1DIPC   D3A22027  27.001  23.033   3.977  0.1960 -0.2055  0.1015
    1DIPC   C4A22028  26.887  22.809   4.317 -0.1346  0.3045  0.0049
    1DIPC   C1B22029  28.008  23.425   3.446 -0.0359 -0.0549 -0.0803
    1DIPC   D2B22030  27.766  23.105   3.595 -0.1573  0.1043 -0.1662
    1DIPC   D3B22031  27.708  23.261   4.037  0.1123 -0.2196 -0.0601
    1DIPC   C4B22032  27.985  23.228   4.371  0.0187 -0.4722 -0.2920
    1DIPC   NC322033  19.611   6.497   2.627  0.0347 -0.2660 -0.0228
    1DIPC   PO422034  20.111   6.514   2.629  0.1557  0.1169 -0.1084
    1DIPC   GL122035  20.003   6.667   3.015 -0.1480  0.0739  0.0653
    1DIPC   GL222036  20.215   6.386   3.189 -0.1736  0.0048  0.0929
    1DIPC   C1A22037  19.864   6.941   3.262  0.2608 -0.0412 -0.0239
    1DIPC   D2A22038  19.975   6.891   3.678  0.2055  0.3033 -0.0505
    1DIPC   D3A22039  19.684   7.162   3.667 -0.3491  0.2917 -0.1096
    1DIPC   C4A22040  19.254   7.047   3.441  0.0788 -0.4529 -0.0104
    1DIPC   C1B22041  19.946   6.377   3.547  0.1081 -0.0845 -0.0807
    1DIPC   D2B22042  19.794   6.513   4.063  0.0507 -0.0403  0.2030
    1DIPC   D3B22043  19.699   6.125   4.358 -0.0686 -0.2045 -0.0058
    1DIPC   C4B22044  19.896   5.743   4.253 -0.2252  0.1737  0.0556
    1DIPC   NC322045  12.301   9.493   3.395  0.2584 -0.0291  0.3529
    1DIPC   PO422046  11.942   9.564   3.380  0.1512  0.0380 -0.0456
    1DIPC   GL122047  11.670   9.542   3.693  0.1696  0.0925 -0.4473
    1DIPC   GL222048  11.393   9.379   3.784  0.1190 -0.3509  0.1616
    1DIPC   C1A22049  11.876   9.564   4.097 -0.0123 -0.0934  0.0920
    1DIPC   D2A22050  12.161   9.368   4.392  0.1685 -0.2881  0.4925
    1DIPC   D3A22051  11.764   9.387   4.559  0.0275 -0.0290  0.2455
    1DIPC   C4A22052  11.475   9.766   4.583 -0.1651 -0.0187 -0.2889
    1DIPC   C1B22053  11.350   9.449   4.222 -0.2206 -0.1625 -0.0653
    1DIPC   D2B22054  11.264   9.332   4.644 -0.0402  0.0153  0.0272
    1DIPC   D3B22055  11.163   9.556   5.005 -0.2074 -0.1993  0.1382
    1DIPC   C4B22056  11.280   9.865   5.360 -0.3495  0.1425  0.2044
    1DIPC   NC322057  13.436  24.254   2.134  0.0070  0.2257  0.1519
    1DIPC   PO422058  13.530  24.201   2.627 -0.3866  0.2137  0.1266
    1DIPC   GL122059  13.512  24.183   3.030  0.0496  0.3691 -0.0582
    1DIPC   GL222060  13.342  24.031   3.195  0.4327  0.2514 -0.0882
    1DIPC   C1A22061  13.677  24.380   3.424 -0.1237 -0.3778 -0.3659
    1DIPC   D2A22062  13.742  24.473   3.799 -0.1218  0.3100  0.0770
    1DIPC   D3A22063  13.986  24.220   4.060 -0.2592 -0.2616 -0.0445
    1DIPC   C4A22064  14.132  24.297   4.425 -0.3997 -0.1794  0.0817
    1DIPC   C1B22065  13.372  24.088   3.746  0.2835  0.0140  0.1747
    1DIPC   D2B22066  13.507  24.158   4.216 -0.2794 -0.0386 -0.2932
    1DIPC   D3B22067  13.048  24.130   4.350 -0.0559  0.2503  0.1108
    1DIPC   C4B22068  12.741  24.511   4.278  0.0394  0.4312  0.0060
    1DIPC   NC322069  28.578   3.917   3.299  0.1216 -0.1489 -0.1021
    1DIPC   PO422070  28.916   4.117   3.275 -0.1563 -0.3634 -0.5265
    1DIPC   GL122071  29.072   4.412   3.734  0.2056 -0.0627  0.0498
    1DIPC   GL222072  28.908   4.671   3.801  0.0357  0.0797  0.1589
    1DIPC   C1A22073  29.265   4.584   4.201 -0.0126 -0.1818  0.1742
    1DIPC   D2A22074  29.484   4.794   4.442 -0.2524 -0.0516 -0.1459
    1DIPC   D3A22075  29.117   5.010   4.365 -0.2969  0.4252 -0.1505
    1DIPC   C4A22076  28.777   5.174   4.738 -0.2278  0.0806 -0.1860
    1DIPC   C1B22077  28.576   4.860   4.145  0.0406  0.1769  0.2060
    1DIPC   D2B22078  28.298   5.233   4.324 -0.0047  0.2016  0.0800
    1DIPC   D3B22079  28.252   5.304   4.793  0.0390 -0.2100 -0.0103
    1DIPC   C4B22080  28.079   5.717   4.966 -0.1883 -0.0252  0.2003
    1DIPC   NC322081   8.408  19.111   1.708  0.2086 -0.0312  0.1334
    1DIPC   PO422082   8.281  19.161   2.196 -0.0614 -0.1253 -0.1150
    1DIPC   GL122083   8.161  19.279   2.644 -0.0173 -0.0392 -0.3661
    1DIPC   GL222084   8.286  19.027   2.801  0.1156  0.1459 -0.0935
    1DIPC   C1A22085   7.917  19.544   2.805 -0.0593 -0.1975 -0.4047
    1DIPC   D2A22086   7.683  19.923   2.976 -0.1688  0.2124  0.1194
    1DIPC   D3A22087   7.706  20.077   3.405  0.1142 -0.1404 -0.0640
    1DIPC   C4A22088   7.475  19.780   3.674  0.1114 -0.0086  0.0795
    1DIPC   C1B22089   8.055  19.086   3.115 -0.0346  0.0308  0.2432
    1DIPC   D2B22090   8.166  19.273   3.568 -0.0663 -0.0155  0.2434
    1DIPC   D3B22091   7.747  19.065   3.594 -0.2175  0.1023 -0.0789
    1DIPC   C4B22092   7.346  19.152   3.507  0.1167  0.0654 -0.1973
    1DIPC   NC322093  16.784   0.459   2.487  0.2422  0.2554  0.1532
    1DIPC   PO422094  17.067   0.362   2.888  0.1099  0.0192 -0.0073
    1DIPC   GL122095  17.413   0.316   3.235  0.2885 -0.0875  0.0206
    1DIPC   GL222096  17.116   0.443   3.417  0.2008  0.2128 -0.1397
    1DIPC   C1A22097  17.469   0.277   3.689  0.1616  0.0341 -0.3193
    1DIPC   D2A22098  17.268   0.399   4.050 -0.1716 -0.0753  0.1424
    1DIPC   D3A22099  17.549   0.178   4.237 -0.0512 -0.2752  0.0618
    1DIPC   C4A22100  17.506   0.163   4.747 -0.3736 -0.2653  0.1801
    1DIPC   C1B22101  17.162   0.933   3.522  0.0477  0.0709  0.0846
    1DIPC   D2B22102  17.079   1.159   3.891 -0.0799 -0.2599  0.4334
    1DIPC   D3B22103  17.325   1.467   3.996  0.3798 -0.0463 -0.0417
    1DIPC   C4B22104  17.786   1.594   3.879  0.1196  0.1378  0.1523
    1DIPC   NC322105   6.997  27.208   3.188  0.0298 -0.0164 -0.0140
    1DIPC   PO422106   6.630  26.872   3.037  0.2029  0.1545  0.0296
    1DIPC   GL122107   6.585  26.962   3.526  0.1167 -0.1582 -0.1021
    1DIPC   GL222108   6.683  27.267   3.532 -0.2104 -0.1967  0.0212
    1DIPC   C1A22109   6.539  26.772   3.998 -0.2605  0.1803 -0.1106
    1DIPC   D2A22110   6.613  26.739   4.430 -0.2812  0.3467 -0.1525
    1DIPC   D3A22111   6.937  26.719   4.818 -0.0943  0.4285 -0.0531
    1DIPC   C4A22112   6.906  27.201   4.816 -0.0647  0.1015 -0.1667
    1DIPC   C1B22113   6.662  27.365   3.930 -0.2962 -0.1724  0.1863
    1DIPC   D2B22114   6.760  27.163   4.307 -0.3294 -0.1492  0.2213
    1DIPC   D3B22115   7.053  27.531   4.430 -0.1162 -0.0247 -0.0965
    1DIPC   C4B22116   7.424  27.448   4.520  0.3586  0.1428 -0.1706
    1DIPC   NC322117  25.832  29.886   3.527 -0.0887 -0.0518  0.0164
    1DIPC   PO422118  25.343  30.061   3.420  0.2719 -0.2044  0.0773
    1DIPC   GL122119  25.466  30.180   3.816 -0.2865 -0.1066 -0.1994
    1DIPC   GL222120  25.505  30.082   4.055 -0.3259 -0.3952  0.1870
    1DIPC   C1A22121  25.205   0.191   4.074  0.1339  0.0441  0.2147
    1DIPC   D2A22122  25.078   0.192   4.535  0.0881 -0.1804 -0.0257
    1DIPC   D3A22123  24.669   0.141   4.492 -0.0360 -0.1275 -0.0181
    1DIPC   C4A22124  24.320   0.503   4.693 -0.4270 -0.0479  0.1269
    1DIPC   C1B22125  25.383  30.090   4.430  0.0035  0.0399 -0.1480
    1DIPC   D2B22126  25.244  30.145   4.824 -0.0356  0.3321 -0.0284
    1DIPC   D3B22127  24.864  30.250   4.945  0.2932  0.0051  0.1535
    1DIPC   C4B22128  24.521  29.984   5.009 -0.0098 -0.0113 -0.2347
    1DIPC   NC322129  14.781  21.718   2.473  0.2528 -0.0372 -0.3220
    1DIPC   PO422130  14.671  22.065   2.543  0.0986  0.0405  0.2043
    1DIPC   GL122131  14.790  22.038   2.977 -0.0747 -0.3385  0.0529
    1DIPC   GL222132  14.641  22.218   3.229  0.0013 -0.1509 -0.2144
    1DIPC   C1A22133  14.925  21.850   3.346  0.0366 -0.2387 -0.3155
    1DIPC   D2A22134  15.096  21.690   3.717 -0.2221  0.0015 -0.0681
    1DIPC   D3A22135  15.050  22.138   3.819 -0.1332  0.2377 -0.0011
    1DIPC   C4A22136  15.307  22.515   3.922 -0.3091 -0.1279  0.0341
    1DIPC   C1B22137  14.361  22.479   3.540  0.2106 -0.1431 -0.0899
    1DIPC   D2B22138  14.147  22.534   3.913  0.0250 -0.0429 -0.0827
    1DIPC   D3B22139  14.058  22.144   4.052  0.1529 -0.0152 -0.0318
    1DIPC   C4B22140  14.007  21.958   3.675 -0.4252  0.4241  0.1876
    1DIPC   NC322141  12.095  10.307   3.869  0.0488  0.1837  0.1173
    1DIPC   PO422142  12.451  10.225   3.601 -0.0449  0.1542  0.0352
    1DIPC   GL122143  12.481  10.222   4.111  0.1120  0.0695 -0.1841
    1DIPC   GL222144  12.793  10.049   4.094 -0.0518  0.4886 -0.1254
    1DIPC   C1A22145  12.529  10.079   4.513 -0.1395  0.1876  0.0637
    1DIPC   D2A22146  12.714   9.924   4.848  0.1913 -0.1625  0.0025
    1DIPC   D3A22147  12.934  10.278   4.824  0.2979 -0.0005 -0.3873
    1DIPC   C4A22148  12.668  10.535   4.497 -0.2434 -0.0318  0.2019
    1DIPC   C1B22149  13.033   9.861   4.452  0.1166  0.2942 -0.1165
    1DIPC   D2B22150  13.338   9.914   4.907  0.3090  0.0190  0.2713
    1DIPC   D3B22151  13.609   9.554   4.701 -0.5610 -0.2378 -0.1017
    1DIPC   C4B22152  13.385   9.081   4.693  0.2104  0.1177 -0.1038
    1DIPC   NC322153   7.970  30.074   3.175 -0.0419  0.1017 -0.2404
    1DIPC   PO422154   8.305  29.774   3.265  0.1563 -0.0269  0.1722
    1DIPC   GL122155   8.533  29.906   3.641  0.3650  0.0511 -0.2639
    1DIPC   GL222156   8.755  30.199   3.523  0.0843 -0.2372 -0.2610
    1DIPC   C1A22157   8.569  29.634   4.019  0.0869 -0.1197 -0.0136
    1DIPC   D2A22158   8.336  29.643   4.363  0.3060 -0.0253  0.1961
    1DIPC   D3A22159   7.992  29.930   4.571  0.1618  0.0646  0.3867
    1DIPC   C4A22160   7.983   0.015   4.800  0.2046  0.1480  0.0966
    1DIPC   C1B22161   8.556  30.317   3.954  0.1675 -0.2837  0.1365
    1DIPC   D2B22162   8.353  30.187   4.278 -0.1325  0.1572 -0.0095
    1DIPC   D3B22163   8.474  30.139   4.743  0.0898  0.1020 -0.0226
    1DIPC   C4B22164   8.487  29.643   4.855 -0.1145  0.3534 -0.3200
    1DIPC   NC322165  17.130   1.498   2.253  0.1409  0.1678  0.0665
    1DIPC   PO422166  17.090   1.265   2.601 -0.1379  0.2348  0.1524
    1DIPC   GL122167  17.388   1.079   2.877 -0.1013 -0.2518  0.1028
    1DIPC   GL222168  17.473   1.341   3.021  0.0398  0.1267  0.3577
    1DIPC   C1A22169  17.550   0.771   3.061 -0.2068 -0.2439 -0.0985
    1DIPC   D2A22170  17.858   0.680   3.442  0.0645  0.1299  0.0593
    1DIPC   D3A22171  18.072   0.823   3.844  0.0070 -0.1432 -0.1711
    1DIPC   C4A22172  18.215   0.617   4.295  0.0012  0.0888  0.0697
    1DIPC   C1B22173  17.666   1.151   3.386 -0.0019 -0.3803  0.1188
    1DIPC   D2B22174  17.555   0.967   3.813  0.1498  0.0438 -0.0081
    1DIPC   D3B22175  17.404   0.945   4.222 -0.0384  0.2735  0.1282
    1DIPC   C4B22176  17.476   1.310   4.460  0.0583 -0.2480 -0.2390
    1DIPC   NC322177  13.797  13.725   3.808  0.0681  0.1039  0.2684
    1DIPC   PO422178  14.160  13.692   3.578 -0.1525  0.2564 -0.0063
    1DIPC   GL122179  14.364  13.745   4.012  0.0244  0.1892 -0.0881
    1DIPC   GL222180  14.076  13.924   4.181  0.0220 -0.1366  0.0353
    1DIPC   C1A22181  14.278  13.562   4.441  0.0476 -0.4637  0.1220
    1DIPC   D2A22182  14.639  13.594   4.700  0.0260 -0.0723 -0.2436
    1DIPC   D3A22183  14.941  13.262   4.812  0.0074 -0.0054  0.0776
    1DIPC   C4A22184  15.393  12.988   4.759 -0.1657  0.2306 -0.1259
    1DIPC   C1B22185  13.919  13.898   4.529 -0.0005 -0.2308 -0.0110
    1DIPC   D2B22186  13.606  13.742   4.765 -0.0142 -0.1456  0.3368
    1DIPC   D3B22187  13.457  13.842   5.213  0.0051 -0.0550  0.0256
    1DIPC   C4B22188  13.076  13.696   5.417 -0.1845  0.1784 -0.0471
    1DIPC   NC322189  15.590   3.333   2.879  0.3454  0.0166 -0.0716
    1DIPC   PO422190  15.431   3.817   2.860 -0.1693  0.1692  0.1494
    1DIPC   GL122191  15.485   3.720   3.197 -0.2183 -0.2593  0.0074
    1DIPC   GL222192  15.254   3.510   3.378  0.0190  0.1359 -0.0633
    1DIPC   C1A22193  15.576   3.886   3.560  0.0720 -0.0741 -0.0214
    1DIPC   D2A22194  15.926   3.992   3.847 -0.1145 -0.1926 -0.3120
    1DIPC   D3A22195  15.719   4.337   3.935 -0.0809 -0.1137  0.1256
    1DIPC   C4A22196  15.393   4.337   3.681 -0.1827  0.1455  0.0156
    1DIPC   C1B22197  15.275   3.487   3.743  0.1425 -0.2139 -0.0107
    1DIPC   D2B22198  15.188   3.399   4.188 -0.1422  0.1013 -0.1067
    1DIPC   D3B22199  14.862   3.535   4.052 -0.1113  0.1352  0.1881
    1DIPC   C4B22200  14.811   3.518   3.571 -0.2851 -0.1590 -0.1223
    1DIPC   NC322201  28.479  25.805   2.685  0.1042  0.2850  0.2068
    1DIPC   PO422202  28.152  25.844   2.921  0.0264 -0.1651 -0.0282
    1DIPC   GL122203  28.314  25.595   3.146 -0.1324  0.3325 -0.0254
    1DIPC   GL222204  28.770  25.674   3.108  0.0559  0.3276 -0.0336
    1DIPC   C1A22205  28.571  25.414   3.630  0.0914  0.0451  0.2267
    1DIPC   D2A22206  28.743  25.150   3.977 -0.0167  0.3543 -0.1380
    1DIPC   D3A22207  28.548  24.884   4.275 -0.2357 -0.0798 -0.1155
    1DIPC   C4A22208  28.574  24.634   4.584 -0.0515  0.1793  0.5889
    1DIPC   C1B22209  28.993  26.067   3.308 -0.1478 -0.0293 -0.3217
    1DIPC   D2B22210  28.780  26.292   3.660 -0.0704  0.1156 -0.0402
    1DIPC   D3B22211  29.091  26.663   3.836 -0.0972 -0.0458 -0.0599
    1DIPC   C4B22212  28.942  27.154   3.826 -0.1369 -0.0217  0.0873
    1DIPC   NC322213   9.344   1.061   2.810 -0.1514 -0.1257 -0.0776
    1DIPC   PO422214   8.974   0.981   3.055 -0.1953  0.2550  0.1907
    1DIPC   GL122215   8.915   1.113   3.511  0.1284 -0.1528 -0.0606
    1DIPC   GL222216   9.174   0.885   3.820  0.2453  0.0967 -0.1788
    1DIPC   C1A22217   9.098   1.375   3.751  0.0369  0.4180 -0.3315
    1DIPC   D2A22218   9.155   1.753   3.864 -0.1120 -0.1859  0.0147
    1DIPC   D3A22219   8.830   1.988   3.975 -0.0834 -0.2000 -0.0206
    1DIPC   C4A22220   8.972   2.202   4.277  0.3934  0.1060 -0.0845
    1DIPC   C1B22221   8.966   1.124   4.221 -0.2259 -0.2743  0.1136
    1DIPC   D2B22222   8.945   1.247   4.505 -0.1187  0.1626 -0.1521
    1DIPC   D3B22223   8.849   0.989   4.918  0.1300 -0.1079  0.0868
    1DIPC   C4B22224   9.106   0.601   4.917 -0.0335  0.0838  0.2377
    1DIPC   NC322225  30.077   7.276   3.008  0.0092  0.3046 -0.1105
    1DIPC   PO422226  29.785   6.946   2.908  0.1096  0.1629 -0.0853
    1DIPC   GL122227  29.938   6.703   3.131  0.0136 -0.0290  0.1219
    1DIPC   GL222228  30.225   6.801   3.314 -0.0510 -0.2615  0.2692
    1DIPC   C1A22229  29.852   6.573   3.645 -0.2819  0.1567 -0.2187
    1DIPC   D2A22230  29.861   6.729   4.038  0.1261  0.2211 -0.0387
    1DIPC   D3A22231  29.529   6.380   4.056  0.0800  0.0376  0.2441
    1DIPC   C4A22232  29.432   6.120   4.465 -0.1561 -0.1669  0.1252
    1DIPC   C1B22233  29.931   7.087   3.605 -0.0412  0.0832 -0.0490
    1DIPC   D2B22234  29.879   7.456   3.412 -0.0746  0.1597  0.1759
    1DIPC   D3B22235  29.830   7.534   3.883 -0.1144 -0.0463 -0.2090
    1DIPC   C4B22236  30.169   7.320   4.177 -0.0938  0.1102 -0.0320
    1DIPC   NC322237   6.404  28.545   2.807  0.0852 -0.0145  0.2491
    1DIPC   PO422238   6.729  28.367   2.967 -0.0285  0.2583 -0.0071
    1DIPC   GL122239   6.804  28.405   3.362  0.2634 -0.1706 -0.0198
    1DIPC   GL222240   7.124  28.532   3.546 -0.0166  0.2462  0.0179
    1DIPC   C1A22241   6.658  28.578   3.746  0.1825 -0.0564  0.1943
    1DIPC   D2A22242   6.606  28.376   4.185 -0.2940  0.2721 -0.0090
    1DIPC   D3A22243   6.580  28.525   4.635 -0.0451 -0.0834  0.1464
    1DIPC   C4A22244   6.881  28.398   4.953 -0.5896 -0.0933 -0.0908
    1DIPC   C1B22245   7.017  28.548   4.014 -0.2318  0.0615  0.1719
    1DIPC   D2B22246   7.190  28.711   4.386 -0.1787 -0.2163 -0.0365
    1DIPC   D3B22247   7.495  28.933   3.964 -0.0901 -0.1992 -0.1220
    1DIPC   C4B22248   7.749  29.260   3.933 -0.1924  0.4014 -0.0877
    1DIPC   NC322249  19.677  12.869   2.064  0.1579  0.0043  0.4145
    1DIPC   PO422250  19.682  12.764   2.496  0.0126 -0.0645  0.2690
    1DIPC   GL122251  19.626  12.661   2.918 -0.2593 -0.0671 -0.2221
    1DIPC   GL222252  19.923  12.456   2.875  0.2790  0.1212  0.1157
    1DIPC   C1A22253  19.478  12.574   3.318 -0.0964  0.1071  0.3537
    1DIPC   D2A22254  19.414  12.701   3.721  0.2050 -0.0056  0.0714
    1DIPC   D3A22255  19.498  12.551   4.163 -0.0366  0.1008 -0.4842
    1DIPC   C4A22256  19.763  12.156   4.153  0.2628 -0.1259 -0.1601
    1DIPC   C1B22257  19.964  12.644   3.338  0.2577  0.0168 -0.0837
    1DIPC   D2B22258  19.860  12.811   3.797 -0.0590 -0.1769  0.0292
    1DIPC   D3B22259  19.877  13.075   3.524 -0.0625 -0.0076  0.0240
    1DIPC   C4B22260  19.587  13.046   3.257  0.0867 -0.1989  0.0063
    1DIPC   NC322261  29.496   7.588   2.552  0.0110 -0.0726  0.2542
    1DIPC   PO422262  29.176   7.726   2.779 -0.2152  0.1466 -0.0272
    1DIPC   GL122263  29.275   7.935   3.085 -0.0062  0.0160 -0.0680
    1DIPC   GL222264  28.929   8.083   3.105  0.0041  0.0915  0.0408
    1DIPC   C1A22265  29.567   7.898   3.469  0.0880  0.1201 -0.0387
    1DIPC   D2A22266  29.879   8.035   3.874 -0.0146 -0.0191  0.2527
    1DIPC   D3A22267  29.766   8.263   4.278 -0.0030  0.1578 -0.0229
    1DIPC   C4A22268  29.346   8.437   4.330 -0.2387 -0.2391  0.1452
    1DIPC   C1B22269  29.125   8.167   3.482 -0.0071  0.1640 -0.1182
    1DIPC   D2B22270  29.314   8.054   3.927  0.6741  0.0116 -0.1433
    1DIPC   D3B22271  29.337   7.891   4.337  0.0561 -0.2631  0.0926
    1DIPC   C4B22272  29.190   7.466   4.499  0.1973 -0.4000 -0.0715
    1DIPC   NC322273  21.327  11.303   2.513 -0.1293 -0.1165 -0.2273
    1DIPC   PO422274  21.390  11.791   2.549  0.2690 -0.2689 -0.1943
    1DIPC   GL122275  21.407  11.763   2.914  0.1325  0.2249  0.0204
    1DIPC   GL222276  21.595  11.680   3.133 -0.1261 -0.0847  0.1091
    1DIPC   C1A22277  21.034  11.800   3.154  0.0219 -0.0659 -0.0001
    1DIPC   D2A22278  20.667  11.961   3.371  0.2972 -0.1098 -0.4640
    1DIPC   D3A22279  20.615  12.007   3.838  0.2366  0.1308 -0.0433
    1DIPC   C4A22280  20.695  11.703   4.150  0.0161  0.2928  0.0504
    1DIPC   C1B22281  21.501  11.792   3.596  0.4259 -0.2287 -0.0058
    1DIPC   D2B22282  21.491  11.814   4.076 -0.1020  0.1652  0.1447
    1DIPC   D3B22283  21.127  11.976   4.076 -0.1244 -0.3749  0.0391
    1DIPC   C4B22284  21.050  12.029   3.652 -0.0129 -0.0843  0.1793
    1DIPC   NC322285   1.395  24.715   2.953  0.0581 -0.2919 -0.0887
    1DIPC   PO422286   1.365  25.208   2.932  0.3193 -0.0505 -0.0169
    1DIPC   GL122287   1.353  25.055   3.344 -0.2197 -0.2134  0.0691
    1DIPC   GL222288   1.156  24.654   3.477  0.0999 -0.1124 -0.1272
    1DIPC   C1A22289   1.292  25.161   3.710 -0.0682 -0.0712  0.1698
    1DIPC   D2A22290   1.281  25.433   4.030 -0.0246  0.0313  0.0985
    1DIPC   D3A22291   1.638  25.310   4.385  0.4594 -0.1175  0.0909
    1DIPC   C4A22292   1.506  24.963   4.202 -0.2825 -0.1662 -0.2785
    1DIPC   C1B22293   1.330  24.669   3.809  0.2901 -0.1813  0.3104
    1DIPC   D2B22294   1.432  24.399   4.172 -0.2443 -0.0837  0.2993
    1DIPC   D3B22295   1.473  24.597   4.550 -0.0301 -0.4886  0.0376
    1DIPC   C4B22296   1.659  24.509   4.909  0.2458  0.0691 -0.0225
    1DIPC   NC322297  23.661   1.174   3.366 -0.4105 -0.2149 -0.1334
    1DIPC   PO422298  23.352   1.088   3.445 -0.1569 -0.0977  0.0191
    1DIPC   GL122299  23.266   0.812   3.627  0.1906  0.3605 -0.0897
    1DIPC   GL222300  23.535   0.597   3.673 -0.1804  0.1520 -0.1560
    1DIPC   C1A22301  23.390   0.809   4.081  0.1501 -0.1472 -0.0185
    1DIPC   D2A22302  23.409   0.678   4.455  0.0973 -0.2205 -0.1112
    1DIPC   D3A22303  23.328   0.166   4.458  0.0034  0.0601 -0.0836
    1DIPC   C4A22304  23.601  30.355   4.813  0.3556 -0.1502 -0.1450
    1DIPC   C1B22305  23.278   0.303   4.001  0.0648 -0.0340  0.1930
    1DIPC   D2B22306  22.924   0.372   4.268  0.2625  0.4395  0.0918
    1DIPC   D3B22307  23.043   0.488   4.750 -0.1720  0.1475 -0.0397
    1DIPC   C4B22308  23.175   0.050   5.024  0.3391  0.0490  0.1543
    1DIPC   NC322309  15.245  14.139   3.547  0.2999  0.3251  0.1123
    1DIPC   PO422310  15.407  14.454   3.474 -0.2747 -0.3278  0.0418
    1DIPC   GL122311  15.571  14.456   3.869 -0.1566  0.1386  0.0573
    1DIPC   GL222312  15.712  14.171   4.056 -0.0866  0.0686  0.2495
    1DIPC   C1A22313  15.480  14.872   4.099 -0.0977  0.4050  0.1260
    1DIPC   D2A22314  15.581  15.053   4.482  0.0087  0.3676 -0.2105
    1DIPC   D3A22315  15.984  15.256   4.442 -0.0616 -0.0013 -0.1075
    1DIPC   C4A22316  16.325  15.123   4.681  0.3225  0.0556 -0.1805
    1DIPC   C1B22317  15.573  13.722   4.244  0.0615 -0.0015  0.1547
    1DIPC   D2B22318  15.750  13.362   4.060  0.5117  0.0617 -0.0953
    1DIPC   D3B22319  15.828  13.349   4.545  0.1389 -0.3425 -0.1156
    1DIPC   C4B22320  16.176  13.212   4.933 -0.1417  0.1855  0.1482
    1DIPC   NC322321  22.187   5.644   3.450 -0.0476  0.1138 -0.1868
    1DIPC   PO422322  22.718   5.803   3.414  0.2777  0.1252  0.0609
    1DIPC   GL122323  22.499   5.765   3.825  0.1130 -0.2422 -0.0387
    1DIPC   GL222324  22.678   5.596   4.014 -0.0658 -0.2691 -0.0242
    1DIPC   C1A22325  22.340   5.819   4.313  0.1948 -0.1347  0.2998
    1DIPC   D2A22326  22.635   6.039   4.538 -0.3441 -0.1509 -0.0172
    1DIPC   D3A22327  22.882   6.090   4.191 -0.0938  0.2253 -0.2038
    1DIPC   C4A22328  22.874   6.324   3.783  0.0142 -0.1843  0.0401
    1DIPC   C1B22329  22.720   5.603   4.501  0.1707 -0.1748  0.2464
    1DIPC   D2B22330  22.491   5.653   4.831  0.0149  0.0585  0.1910
    1DIPC   D3B22331  22.430   5.300   5.091 -0.3382 -0.0594  0.2431
    1DIPC   C4B22332  22.117   4.981   4.873  0.0409  0.0767 -0.3202
    1DIPC   NC322333  26.185   5.113   3.611 -0.0880  0.1797  0.1797
    1DIPC   PO422334  25.737   5.016   3.632  0.0734  0.0034 -0.1814
    1DIPC   GL122335  25.662   5.139   4.057  0.1468 -0.2652  0.0254
    1DIPC   GL222336  25.569   4.855   4.146  0.1020 -0.3203  0.2293
    1DIPC   C1A22337  25.427   5.211   4.423  0.3421 -0.0028  0.1889
    1DIPC   D2A22338  25.305   5.050   4.877 -0.1900 -0.1578  0.0825
    1DIPC   D3A22339  24.995   5.366   5.114 -0.0810 -0.0024 -0.2555
    1DIPC   C4A22340  24.707   5.749   5.112 -0.2617 -0.1237 -0.0622
    1DIPC   C1B22341  25.402   4.765   4.463  0.1514  0.2165 -0.3830
    1DIPC   D2B22342  25.580   4.612   4.830  0.0411 -0.2642 -0.3576
    1DIPC   D3B22343  25.717   4.919   5.063 -0.2751  0.2894 -0.1106
    1DIPC   C4B22344  25.768   4.596   5.486 -0.0012 -0.2866 -0.1158
    1DIPC   NC322345   9.771  11.913   2.711 -0.2578  0.2348 -0.0533
    1DIPC   PO422346   9.434  11.733   2.897  0.2353  0.0533  0.0349
    1DIPC   GL122347   9.409  11.516   3.249 -0.1453 -0.1010  0.1803
    1DIPC   GL222348   9.507  11.336   3.354 -0.0395 -0.0441 -0.1050
    1DIPC   C1A22349   9.153  11.497   3.649 -0.0079  0.1381 -0.3075
    1DIPC   D2A22350   9.006  11.549   4.019  0.0308  0.1275  0.0576
    1DIPC   D3A22351   8.729  11.286   4.285  0.5573  0.0748  0.3375
    1DIPC   C4A22352   9.002  11.066   4.640 -0.0917 -0.1598  0.0576
    1DIPC   C1B22353   9.549  11.233   3.842  0.0131  0.1636 -0.0806
    1DIPC   D2B22354   9.334  11.270   4.272 -0.2239 -0.0339  0.1162
    1DIPC   D3B22355   9.504  10.966   4.436 -0.1267  0.0769  0.0837
    1DIPC   C4B22356   9.541  10.505   4.566 -0.2292  0.2843  0.1794
    1DIPC   NC322357  16.672   5.971   1.700  0.2593 -0.1353  0.1582
    1DIPC   PO422358  16.749   6.396   2.038  0.0440 -0.0189 -0.0917
    1DIPC   GL122359  16.621   6.383   2.442  0.3230  0.0603 -0.1402
    1DIPC   GL222360  16.236   6.457   2.467 -0.2307  0.2222  0.0617
    1DIPC   C1A22361  16.824   6.381   2.715 -0.1079  0.1732 -0.1426
    1DIPC   D2A22362  16.605   6.140   3.085  0.2101  0.3108 -0.1069
    1DIPC   D3A22363  16.195   5.838   3.002  0.1553 -0.2238 -0.4059
    1DIPC   C4A22364  15.731   5.930   3.015  0.0875 -0.1349  0.0309
    1DIPC   C1B22365  16.402   6.645   2.953  0.2252 -0.2319  0.0520
    1DIPC   D2B22366  16.780   6.623   3.124 -0.1145  0.2026 -0.0540
    1DIPC   D3B22367  16.638   6.481   3.534  0.0793  0.2715  0.1243
    1DIPC   C4B22368  16.610   6.062   3.675  0.0218  0.0516 -0.2034
    1DIPC   NC322369   3.455   3.637   3.099 -0.2709 -0.0230 -0.1587
    1DIPC   PO422370   3.061   3.922   3.071  0.0952 -0.2595  0.2128
    1DIPC   GL122371   3.199   3.931   3.547  0.3354 -0.0951  0.2379
    1DIPC   GL222372   3.291   3.620   3.633  0.0083 -0.1164  0.1628
    1DIPC   C1A22373   3.284   4.261   3.851 -0.2151 -0.2689 -0.1097
    1DIPC   D2A22374   3.325   4.318   4.213  0.0286  0.0823 -0.2497
    1DIPC   D3A22375   2.883   4.445   4.371 -0.2222 -0.0221  0.1406
    1DIPC   C4A22376   2.919   4.036   4.646 -0.1673  0.3907 -0.1590
    1DIPC   C1B22377   3.400   3.773   4.048 -0.1181  0.0069  0.0159
    1DIPC   D2B22378   3.486   3.902   4.528 -0.0682  0.1065 -0.0333
    1DIPC   D3B22379   3.348   3.789   4.880 -0.2299 -0.2001  0.2602
    1DIPC   C4B22380   3.577   3.768   5.273 -0.0835  0.0017  0.1155
    1DIPC   NC322381   4.059   0.356   3.598 -0.0053  0.2852 -0.2859
    1DIPC   PO422382   4.442   0.024   3.473  0.2058  0.0433 -0.0163
    1DIPC   GL122383   4.397   0.119   3.927  0.0225 -0.0616 -0.1319
    1DIPC   GL222384   4.336  30.167   4.081  0.0728  0.1271 -0.2820
    1DIPC   C1A22385   4.652   0.097   4.366  0.0305  0.2771  0.0040
    1DIPC   D2A22386   4.780   0.404   4.647  0.0489  0.3424 -0.2006
    1DIPC   D3A22387   4.396   0.645   4.658  0.0522  0.4101  0.2861
    1DIPC   C4A22388   4.206   0.857   4.855  0.1604  0.1054  0.0935
    1DIPC   C1B22389   4.331  30.059   4.490  0.0908  0.2227  0.2779
    1DIPC   D2B22390   4.113  30.033   4.905  0.1109  0.1768  0.1646
    1DIPC   D3B22391   4.215   0.016   5.288 -0.0226 -0.4188  0.2957
    1DIPC   C4B22392   3.953   0.379   5.442 -0.2929  0.2073 -0.0387
    1DIPC   NC322393   8.092  10.002   3.138  0.0258  0.0570 -0.2485
    1DIPC   PO422394   7.870  10.395   3.169  0.0760  0.3711  0.0120
    1DIPC   GL122395   8.174  10.581   3.473 -0.0207 -0.1525 -0.1020
    1DIPC   GL222396   8.297  10.857   3.318  0.2975 -0.2259  0.0100
    1DIPC   C1A22397   8.356  10.582   3.966 -0.0522 -0.1068  0.1470
    1DIPC   D2A22398   8.471  10.215   4.175  0.0828 -0.1265  0.0942
    1DIPC   D3A22399   8.213  10.425   4.531 -0.0635 -0.0727 -0.0018
    1DIPC   C4A22400   8.061  10.120   4.844  0.0009  0.3444  0.2597
    1DIPC   C1B22401   8.152  11.199   3.601 -0.2133  0.0451  0.0911
    1DIPC   D2B22402   7.909  11.458   3.940 -0.0014  0.1399 -0.3946
    1DIPC   D3B22403   7.493  11.536   4.272  0.0716 -0.0037 -0.0685
    1DIPC   C4B22404   7.260  11.798   4.441  0.0782  0.0935  0.1140
    1DIPC   NC322405   4.130  10.086   1.891 -0.0973 -0.1802  0.1914
    1DIPC   PO422406   4.187  10.307   2.207  0.0352 -0.1137  0.0799
    1DIPC   GL122407   4.409  10.254   2.584 -0.2682  0.0961 -0.0383
    1DIPC   GL222408   4.522   9.924   2.780 -0.0346 -0.0120 -0.1288
    1DIPC   C1A22409   4.608  10.433   2.872  0.2186  0.2715 -0.2037
    1DIPC   D2A22410   4.898  10.256   3.057  0.0053 -0.1242  0.3838
    1DIPC   D3A22411   5.022  10.657   3.344 -0.2108 -0.1591  0.2006
    1DIPC   C4A22412   4.964  10.614   3.748 -0.0016  0.0582 -0.0019
    1DIPC   C1B22413   4.165  10.120   3.000 -0.1296  0.1339 -0.1002
    1DIPC   D2B22414   3.937  10.483   3.066  0.0656  0.0982 -0.0634
    1DIPC   D3B22415   4.270  10.509   3.217 -0.0334 -0.1196 -0.2301
    1DIPC   C4B22416   4.489  10.271   3.521 -0.1482 -0.0281  0.2206
    1DIPC   NC322417  28.637   0.660   3.829  0.1835  0.1590 -0.0384
    1DIPC   PO422418  28.258   0.424   4.089  0.1194 -0.2782 -0.2419
    1DIPC   GL122419  27.927   0.086   4.304  0.1443 -0.4764 -0.0013
    1DIPC   GL222420  27.646   0.113   4.384 -0.2023  0.0847  0.1514
    1DIPC   C1A22421  28.180   0.057   4.744 -0.1093 -0.0922  0.1304
    1DIPC   D2A22422  28.324  30.328   5.245  0.0156  0.1662  0.3487
    1DIPC   D3A22423  28.604   0.275   5.401  0.0366  0.2805  0.0287
    1DIPC   C4A22424  28.499   0.636   5.267 -0.2806  0.0067 -0.0511
    1DIPC   C1B22425  27.621   0.039   4.816 -0.0192 -0.1874  0.2181
    1DIPC   D2B22426  27.683   0.094   5.179  0.0013  0.0069 -0.0256
    1DIPC   D3B22427  27.912  30.170   5.525 -0.2054 -0.1492  0.2466
    1DIPC   C4B22428  27.882  30.345   6.013 -0.0129  0.0662  0.2636
    1DIPC   NC322429   1.831   6.702   2.542  0.3482  0.0053  0.0281
    1DIPC   PO422430   1.489   6.886   2.798 -0.1830 -0.1843 -0.2648
    1DIPC   GL122431   1.358   7.256   3.081 -0.1343 -0.1993 -0.2712
    1DIPC   GL222432   1.419   7.572   3.198  0.1463  0.3419 -0.0377
    1DIPC   C1A22433   1.164   7.262   3.597 -0.2402  0.2148 -0.1652
    1DIPC   D2A22434   1.168   7.035   3.990 -0.0638  0.0893  0.4921
    1DIPC   D3A22435   0.891   6.710   4.059  0.1910 -0.1956 -0.1369
    1DIPC   C4A22436   0.704   6.847   4.397 -0.0789  0.0072 -0.1933
    1DIPC   C1B22437   1.637   7.439   3.561  0.2021  0.0633 -0.2591
    1DIPC   D2B22438   1.656   7.213   3.914  0.0131  0.0357 -0.0261
    1DIPC   D3B22439   1.482   7.289   4.366 -0.2875 -0.3875 -0.1584
    1DIPC   C4B22440   1.666   7.120   4.774 -0.2527  0.1911 -0.0895
    1DIPC   NC322441   1.362  28.138   3.568 -0.1454  0.2228  0.2456
    1DIPC   PO422442   0.885  28.067   3.350  0.1008 -0.1565 -0.4418
    1DIPC   GL122443   0.885  28.245   3.769  0.0760  0.1961  0.0896
    1DIPC   GL222444   0.521  28.219   3.853 -0.0843  0.2034  0.1825
    1DIPC   C1A22445   1.106  28.452   4.097  0.2554 -0.0880  0.1147
    1DIPC   D2A22446   1.066  28.869   4.309 -0.0615 -0.1956 -0.0758
    1DIPC   D3A22447   0.946  28.640   4.571  0.2146  0.2161 -0.0220
    1DIPC   C4A22448   1.086  28.609   5.094  0.0369  0.1053  0.1875
    1DIPC   C1B22449   0.338  28.021   4.243  0.1263  0.0422 -0.0757
    1DIPC   D2B22450  30.294  27.894   4.362  0.1995  0.0789  0.0051
    1DIPC   D3B22451   0.014  28.270   4.550  0.1043  0.1332 -0.0442
    1DIPC   C4B22452  30.319  28.156   4.978 -0.2715  0.0298  0.0589
    1DIPC   NC322453  12.117  11.125   3.585 -0.1310  0.0536 -0.0230
    1DIPC   PO422454  11.681  11.006   3.457  0.1826  0.1229  0.1138
    1DIPC   GL122455  11.646  11.228   3.860  0.0378 -0.3628  0.1757
    1DIPC   GL222456  11.466  11.126   4.085  0.2251 -0.4329  0.1140
    1DIPC   C1A22457  11.944  11.570   4.059 -0.0794  0.1551 -0.2113
    1DIPC   D2A22458  12.160  11.927   4.101 -0.1148  0.0683  0.0870
    1DIPC   D3A22459  12.278  12.009   4.526  0.2229  0.0149 -0.0938
    1DIPC   C4A22460  11.964  12.229   4.852 -0.0586 -0.1194 -0.1363
    1DIPC   C1B22461  11.333  11.014   4.602 -0.3584 -0.0342 -0.1572
    1DIPC   D2B22462  11.310  11.107   4.996  0.0724 -0.3474 -0.0740
    1DIPC   D3B22463  10.890  10.953   5.064  0.1943  0.0428  0.1781
    1DIPC   C4B22464  10.672  10.851   5.488 -0.1432  0.1323  0.2568
    1DIPC   NC322465  16.420   3.123   2.950  0.1699  0.3637 -0.2722
    1DIPC   PO422466  16.407   2.641   2.862 -0.1500 -0.2197  0.0757
    1DIPC   GL122467  16.229   2.435   3.223  0.1917 -0.1159 -0.2832
    1DIPC   GL222468  16.442   2.459   3.345 -0.1973 -0.1149 -0.4270
    1DIPC   C1A22469  16.099   2.112   3.567 -0.2140  0.1886 -0.2478
    1DIPC   D2A22470  16.353   1.769   3.737  0.0652  0.0712  0.1975
    1DIPC   D3A22471  16.329   1.526   4.155 -0.1266 -0.0297  0.3608
    1DIPC   C4A22472  16.037   1.153   4.216 -0.1293  0.3395 -0.0762
    1DIPC   C1B22473  16.617   2.200   3.677  0.0022  0.0614  0.0331
    1DIPC   D2B22474  16.644   2.398   4.138 -0.0639  0.1534  0.1616
    1DIPC   D3B22475  16.622   2.065   4.367  0.2990  0.1859  0.2178
    1DIPC   C4B22476  16.300   1.850   4.551  0.2055  0.0663 -0.4366
    1DIPC   NC322477   0.448   0.292   3.654 -0.2315 -0.2253  0.0045
    1DIPC   PO422478   0.291   0.750   3.620  0.1093 -0.0662  0.1013
    1DIPC   GL122479   0.253   0.692   4.070  0.0329  0.1159  0.2015
    1DIPC   GL222480  30.334   0.841   4.182 -0.0550  0.0356  0.1148
    1DIPC   C1A22481   0.371   0.696   4.435 -0.1099  0.1097 -0.3407
    1DIPC   D2A22482   0.766   0.810   4.533  0.2441  0.0691  0.1253
    1DIPC   D3A22483   0.782   0.858   5.044 -0.0221  0.4262  0.0325
    1DIPC   C4A22484   1.029   0.817   5.267  0.0884  0.1011  0.0608
    1DIPC   C1B22485  30.306   0.985   4.585  0.2238 -0.0724  0.1542
    1DIPC   D2B22486  30.262   1.071   4.966 -0.2925  0.3055  0.2067
    1DIPC   D3B22487  30.330   0.840   5.260  0.1225 -0.0116 -0.0661
    1DIPC   C4B22488  30.044   1.059   5.636 -0.0375  0.0955  0.2510
    1DIPC   NC322489  10.480  12.510   3.038  0.0462 -0.1484  0.0815
    1DIPC   PO422490  10.595  12.036   3.170 -0.3358  0.0052 -0.0067
    1DIPC   GL122491  10.628  12.280   3.455 -0.1451  0.0422 -0.1503
    1DIPC   GL222492  10.966  12.355   3.633  0.0426 -0.0339 -0.0027
    1DIPC   C1A22493  10.484  12.333   3.853 -0.1868  0.1090  0.0733
    1DIPC   D2A22494  10.374  12.538   4.195  0.2002  0.4422 -0.2951
    1DIPC   D3A22495  10.666  12.863   4.430  0.0268  0.0342 -0.2260
    1DIPC   C4A22496  10.612  13.128   4.827 -0.0025 -0.0625 -0.0699
    1DIPC   C1B22497  11.204  12.176   4.090 -0.0600 -0.1253 -0.0321
    1DIPC   D2B22498  11.148  11.997   4.432  0.0457 -0.2738 -0.0316
    1DIPC   D3B22499  11.274  11.789   4.797 -0.1066 -0.0621  0.3495
    1DIPC   C4B22500  11.576  12.013   5.066 -0.4480 -0.0479 -0.0765
    1DIPC   NC322501  28.296   8.062   2.563  0.1488  0.0100  0.2802
    1DIPC   PO422502  28.108   8.506   2.721  0.2325  0.1136 -0.0028
    1DIPC   GL122503  28.111   8.763   3.083  0.2984 -0.2817 -0.1042
    1DIPC   GL222504  28.206   8.464   3.265 -0.0836  0.1714 -0.0512
    1DIPC   C1A22505  27.962   8.997   3.353  0.0594 -0.1248  0.2328
    1DIPC   D2A22506  27.901   9.045   3.788  0.1491  0.0444  0.1181
    1DIPC   D3A22507  27.887   8.789   4.151 -0.1962 -0.0195  0.3752
    1DIPC   C4A22508  28.180   8.427   4.296 -0.4759  0.2034  0.1365
    1DIPC   C1B22509  27.848   8.511   3.522  0.1263 -0.2213  0.1350
    1DIPC   D2B22510  27.525   8.686   3.746  0.0365 -0.2208  0.1435
    1DIPC   D3B22511  27.596   8.439   4.109  0.0957 -0.3005  0.2651
    1DIPC   C4B22512  27.517   8.714   4.538 -0.2716 -0.0632 -0.1595
    1DIPC   NC322513  23.473  17.145   1.976  0.1610 -0.4198 -0.0641
    1DIPC   PO422514  23.271  17.498   2.086  0.0029 -0.0693  0.1050
    1DIPC   GL122515  23.101  17.513   2.558  0.0242  0.0361 -0.2071
    1DIPC   GL222516  23.291  17.588   2.739  0.0591 -0.2985 -0.0929
    1DIPC   C1A22517  22.965  17.356   3.015  0.0966 -0.0290 -0.0057
    1DIPC   D2A22518  22.659  17.586   3.253 -0.1295 -0.0371  0.0377
    1DIPC   D3A22519  22.647  17.746   3.649 -0.0800 -0.2132  0.0552
    1DIPC   C4A22520  22.508  18.230   3.675 -0.0226 -0.1971  0.2230
    1DIPC   C1B22521  23.047  17.855   3.092  0.2283 -0.0698  0.1395
    1DIPC   D2B22522  23.179  17.820   3.502 -0.2528  0.1921  0.1734
    1DIPC   D3B22523  22.978  18.281   3.734 -0.2075 -0.0538  0.0091
    1DIPC   C4B22524  22.937  18.802   3.559 -0.0550 -0.0130 -0.2304
    1DIPC   NC322525  24.941   4.610   3.183  0.3014 -0.0739  0.0144
    1DIPC   PO422526  25.001   4.566   3.629 -0.0399 -0.0781 -0.0532
    1DIPC   GL122527  24.707   4.762   3.895 -0.1389 -0.3269 -0.0833
    1DIPC   GL222528  24.599   4.555   4.044  0.0749  0.2283 -0.1752
    1DIPC   C1A22529  24.568   4.969   4.236  0.2234  0.3050 -0.2462
    1DIPC   D2A22530  24.537   5.120   4.736  0.0649  0.0839  0.3125
    1DIPC   D3A22531  24.441   4.738   5.008 -0.0461 -0.1272 -0.1518
    1DIPC   C4A22532  24.505   4.759   5.438  0.1900 -0.1666 -0.0431
    1DIPC   C1B22533  24.621   4.635   4.565  0.0227  0.0447 -0.1587
    1DIPC   D2B22534  24.960   4.661   4.686 -0.0003 -0.1624 -0.3024
    1DIPC   D3B22535  24.994   4.681   5.172  0.0360 -0.0759 -0.0730
    1DIPC   C4B22536  24.904   5.055   5.493 -0.0148 -0.0409  0.0529
    1DIPC   NC322537  20.553  28.133   2.758 -0.0632 -0.0796  0.1660
    1DIPC   PO422538  20.810  27.999   3.132 -0.2673  0.2555  0.1147
    1DIPC   GL122539  20.827  28.191   3.430  0.0260  0.0869 -0.1316
    1DIPC   GL222540  21.039  28.070   3.705  0.2581 -0.2634  0.3897
    1DIPC   C1A22541  20.630  28.312   3.813 -0.0676  0.1879  0.2431
    1DIPC   D2A22542  20.580  28.307   4.308 -0.2775  0.2312  0.0007
    1DIPC   D3A22543  20.666  27.857   4.473  0.3560  0.1185  0.1381
    1DIPC   C4A22544  20.944  27.586   4.830  0.1535 -0.0447 -0.0315
    1DIPC   C1B22545  21.030  28.216   4.170  0.1065  0.1658  0.1429
    1DIPC   D2B22546  21.201  28.289   4.635 -0.1295  0.0309  0.1044
    1DIPC   D3B22547  21.236  27.879   4.509  0.3333 -0.3105 -0.1783
    1DIPC   C4B22548  21.125  27.723   4.106  0.0118  0.0333 -0.1293
    1DIPC   NC322549  11.694  14.986   2.507  0.3467  0.0578  0.3279
    1DIPC   PO422550  12.025  14.772   2.722  0.1291  0.0542 -0.0415
    1DIPC   GL122551  11.906  14.775   3.183  0.2741 -0.2598 -0.0033
    1DIPC   GL222552  11.760  14.557   3.363  0.0017 -0.0404 -0.0276
    1DIPC   C1A22553  11.694  15.110   3.549  0.1456  0.2656  0.0420
    1DIPC   D2A22554  11.953  15.331   3.873 -0.0764  0.0564  0.2940
    1DIPC   D3A22555  11.978  15.541   3.513  0.0411 -0.2920 -0.2781
    1DIPC   C4A22556  11.695  15.961   3.476 -0.4290  0.2509 -0.0777
    1DIPC   C1B22557  11.365  14.714   3.570  0.1018  0.0811  0.0249
    1DIPC   D2B22558  11.173  15.105   3.354  0.0237  0.1455  0.4707
    1DIPC   D3B22559  10.909  15.374   3.554 -0.0869 -0.3152  0.3276
    1DIPC   C4B22560  10.965  15.545   4.068 -0.1970  0.2452 -0.0261
    1DIPC   NC322561  16.062  20.432   2.139 -0.2140  0.1110  0.2611
    1DIPC   PO422562  15.689  20.590   2.110  0.3865  0.0915  0.3595
    1DIPC   GL122563  15.640  20.503   2.465 -0.1193  0.0041  0.1955
    1DIPC   GL222564  15.713  20.618   2.685 -0.0927  0.0442  0.0716
    1DIPC   C1A22565  15.333  20.377   2.838  0.0676  0.2896 -0.0017
    1DIPC   D2A22566  15.154  20.364   3.229 -0.3057 -0.3959  0.1041
    1DIPC   D3A22567  15.147  20.760   3.389 -0.0943  0.1074 -0.1626
    1DIPC   C4A22568  15.072  20.931   2.984  0.1666  0.2973  0.4510
    1DIPC   C1B22569  15.799  20.161   2.883  0.0527  0.0136 -0.0137
    1DIPC   D2B22570  15.661  19.777   3.079 -0.0416  0.2332  0.2549
    1DIPC   D3B22571  16.045  19.777   3.406  0.2028  0.0394 -0.0155
    1DIPC   C4B22572  16.173  19.367   3.474  0.1404 -0.1937 -0.0570
    1DIPC   NC322573  21.825   6.923   3.127  0.0011 -0.0544 -0.1471
    1DIPC   PO422574  21.898   6.537   3.145 -0.1102 -0.0909  0.0624
    1DIPC   GL122575  21.932   6.725   3.589  0.1150  0.3719 -0.0421
    1DIPC   GL222576  21.662   6.931   3.623 -0.3369  0.2157  0.4777
    1DIPC   C1A22577  22.108   7.077   3.919 -0.0318  0.2708  0.3170
    1DIPC   D2A22578  22.455   7.001   4.308  0.1255  0.3274  0.3362
    1DIPC   D3A22579  22.899   7.170   4.188 -0.2786  0.0233  0.1549
    1DIPC   C4A22580  23.320   6.928   4.300 -0.1238 -0.0615  0.1263
    1DIPC   C1B22581  21.496   7.109   3.922 -0.4300 -0.1118  0.2598
    1DIPC   D2B22582  21.256   6.974   4.330 -0.2736 -0.0134  0.2187
    1DIPC   D3B22583  20.733   6.931   4.365 -0.0335 -0.2063  0.0763
    1DIPC   C4B22584  20.590   6.906   4.765 -0.1535  0.2985  0.0330
    1DIPC   NC322585  17.945  10.740   2.743  0.2072  0.0898  0.0020
    1DIPC   PO422586  17.853  10.992   3.078 -0.2874  0.1552  0.1508
    1DIPC   GL122587  17.966  11.172   3.449  0.2326  0.2062 -0.1066
    1DIPC   GL222588  18.204  11.032   3.490 -0.0937  0.0560  0.3158
    1DIPC   C1A22589  17.777  11.169   3.958 -0.1100 -0.0909  0.0944
    1DIPC   D2A22590  17.576  11.159   4.287  0.2826 -0.0477 -0.2641
    1DIPC   D3A22591  17.620  10.966   4.669 -0.0711  0.2515  0.1627
    1DIPC   C4A22592  17.234  11.016   4.841  0.0556  0.2710 -0.2550
    1DIPC   C1B22593  18.270  11.084   3.948 -0.0350 -0.4530 -0.0624
    1DIPC   D2B22594  18.552  11.250   4.299 -0.0168  0.0118 -0.3078
    1DIPC   D3B22595  18.347  11.456   4.633 -0.0912  0.1742  0.0495
    1DIPC   C4B22596  18.477  11.873   4.868 -0.0806 -0.2578 -0.1298
    1DIPC   NC322597  22.934   0.685   3.262  0.4480 -0.1172 -0.1056
    1DIPC   PO422598  22.600   0.548   3.569 -0.1446 -0.1832  0.0138
    1DIPC   GL122599  22.511   0.632   3.987  0.1855  0.2181  0.0930
    1DIPC   GL222600  22.452   0.977   3.946 -0.1593  0.0555  0.0323
    1DIPC   C1A22601  22.122   0.676   4.191 -0.2843  0.1572 -0.0690
    1DIPC   D2A22602  22.024   0.899   4.580 -0.4672 -0.1920 -0.0615
    1DIPC   D3A22603  21.647   0.761   4.704 -0.0429  0.1149  0.0714
    1DIPC   C4A22604  21.567   0.364   4.994 -0.0656 -0.1397 -0.1854
    1DIPC   C1B22605  22.538   1.087   4.416  0.0645  0.0382  0.0162
    1DIPC   D2B22606  22.582   1.508   4.790  0.0551  0.2235  0.2758
    1DIPC   D3B22607  22.227   1.234   4.904  0.1330 -0.0205  0.1317
    1DIPC   C4B22608  21.811   1.199   4.972 -0.3537 -0.3336 -0.4395
    1DIPC   NC322609  25.996   9.979   2.162 -0.0133  0.0948 -0.4443
    1DIPC   PO422610  26.018  10.329   2.297  0.0104  0.0041 -0.1635
    1DIPC   GL122611  26.104  10.578   2.627  0.1367 -0.1160  0.0765
    1DIPC   GL222612  25.849  10.426   2.814 -0.0482  0.1580  0.0626
    1DIPC   C1A22613  26.217  10.862   2.994 -0.1150 -0.4010  0.1870
    1DIPC   D2A22614  26.566  11.076   3.071  0.3281  0.1046 -0.1028
    1DIPC   D3A22615  26.248  11.213   3.381 -0.0552  0.0550  0.0944
    1DIPC   C4A22616  26.413  11.059   3.860  0.0027 -0.3186 -0.0572
    1DIPC   C1B22617  26.045  10.223   3.201 -0.3385  0.0803 -0.2082
    1DIPC   D2B22618  26.262   9.977   3.182 -0.1618 -0.0230 -0.1330
    1DIPC   D3B22619  26.298  10.178   3.613  0.0595  0.1553 -0.0926
    1DIPC   C4B22620  26.037  10.262   3.935  0.0056  0.1709 -0.0582
    1DIPC   NC322621  22.578   8.090   2.377  0.1129 -0.0200  0.1323
    1DIPC   PO422622  22.996   7.720   2.511  0.0136 -0.4113  0.0347
    1DIPC   GL122623  23.203   8.057   2.923  0.1647 -0.0090 -0.0428
    1DIPC   GL222624  23.399   8.253   2.878  0.2055 -0.1874 -0.0251
    1DIPC   C1A22625  22.991   7.833   3.263  0.0962 -0.1100  0.0200
    1DIPC   D2A22626  22.709   7.585   3.398 -0.2162  0.0001  0.0006
    1DIPC   D3A22627  22.896   7.661   3.801  0.0265 -0.0228  0.0967
    1DIPC   C4A22628  22.893   7.772   4.206 -0.0463 -0.0009 -0.0469
    1DIPC   C1B22629  23.134   8.553   2.973  0.2948 -0.1421 -0.0250
    1DIPC   D2B22630  22.794   8.720   3.228 -0.1567 -0.1208 -0.1600
    1DIPC   D3B22631  22.778   8.594   3.659  0.2529  0.1001  0.4422
    1DIPC   C4B22632  22.550   8.861   3.936  0.2075 -0.0928  0.2584
    1DIPC   NC322633   5.088   5.204   3.342 -0.0234 -0.1210  0.0135
    1DIPC   PO422634   4.779   5.378   3.062 -0.0839  0.1156 -0.1445
    1DIPC   GL122635   4.759   5.607   3.384 -0.0882  0.3230 -0.0772
    1DIPC   GL222636   4.637   5.434   3.656 -0.3243  0.1387 -0.0103
    1DIPC   C1A22637   4.813   6.042   3.456 -0.0377 -0.0144  0.1724
    1DIPC   D2A22638   5.235   6.411   3.644  0.0297  0.1011  0.2714
    1DIPC   D3A22639   5.139   6.204   3.939 -0.0007  0.1321 -0.1478
    1DIPC   C4A22640   5.110   5.930   4.305  0.1270 -0.0751  0.3834
    1DIPC   C1B22641   4.866   5.444   3.968 -0.0508  0.0599 -0.1472
    1DIPC   D2B22642   4.909   5.482   4.278 -0.5246 -0.0109 -0.1339
    1DIPC   D3B22643   5.328   5.478   4.246  0.0584  0.1706  0.1623
    1DIPC   C4B22644   5.723   5.412   3.976  0.0688  0.1693  0.1326
    1DIPC   NC322645  18.610  15.245   2.093  0.0516  0.0360 -0.0891
    1DIPC   PO422646  18.525  15.142   2.518 -0.2204  0.0347  0.0312
    1DIPC   GL122647  18.786  15.323   2.908  0.0838  0.2550 -0.1189
    1DIPC   GL222648  18.940  15.596   2.869  0.1926  0.0844 -0.1072
    1DIPC   C1A22649  19.205  15.152   3.173  0.3781  0.0426 -0.0666
    1DIPC   D2A22650  19.461  15.464   3.384 -0.0213 -0.2392 -0.4160
    1DIPC   D3A22651  19.491  15.402   3.800 -0.0660 -0.0432 -0.0904
    1DIPC   C4A22652  19.645  15.648   4.058 -0.1617  0.0621 -0.0656
    1DIPC   C1B22653  18.983  15.634   3.302 -0.1040 -0.0035  0.2627
    1DIPC   D2B22654  19.012  15.362   3.654  0.1003  0.3574  0.1624
    1DIPC   D3B22655  18.805  15.320   4.106  0.3868 -0.1170  0.0587
    1DIPC   C4B22656  18.814  15.090   4.425  0.1584  0.2042 -0.0633
    1DIPC   NC322657  15.366  11.994   2.921 -0.1915  0.0088 -0.1278
    1DIPC   PO422658  15.541  11.722   3.362  0.2031  0.2489  0.1653
    1DIPC   GL122659  15.625  11.647   3.856  0.0823 -0.1662 -0.4345
    1DIPC   GL222660  15.536  11.947   4.060 -0.2555 -0.1838  0.3094
    1DIPC   C1A22661  15.768  11.474   4.196 -0.1473  0.1499  0.0406
    1DIPC   D2A22662  15.900  11.203   4.484  0.1255  0.0198 -0.1077
    1DIPC   D3A22663  15.493  11.448   4.605  0.0910 -0.4253  0.0527
    1DIPC   C4A22664  15.280  11.231   4.911 -0.2238  0.1511  0.1288
    1DIPC   C1B22665  15.700  12.263   4.330  0.0029 -0.1044  0.0437
    1DIPC   D2B22666  16.106  12.357   4.383  0.2290 -0.2691 -0.0875
    1DIPC   D3B22667  16.031  12.712   4.138 -0.0883 -0.0232  0.2255
    1DIPC   C4B22668  16.163  13.133   4.195 -0.0312  0.0493 -0.2199
    1DIPC   NC322669   2.028  10.067   2.861  0.2736 -0.1245  0.2991
    1DIPC   PO422670   1.905   9.716   2.848 -0.0765  0.0133 -0.1093
    1DIPC   GL122671   1.917   9.764   3.256 -0.0530 -0.1512  0.3741
    1DIPC   GL222672   2.219   9.870   3.260 -0.3083  0.2384  0.2127
    1DIPC   C1A22673   2.058   9.853   3.683  0.1578  0.0403 -0.0654
    1DIPC   D2A22674   2.203   9.737   4.038 -0.1410 -0.1187  0.2941
    1DIPC   D3A22675   1.859   9.511   3.955 -0.0138  0.1321  0.2600
    1DIPC   C4A22676   1.765   9.349   3.575  0.3749  0.1601  0.3429
    1DIPC   C1B22677   2.554   9.854   3.483  0.1031 -0.0039  0.0508
    1DIPC   D2B22678   2.618   9.723   3.797 -0.0466  0.0545 -0.3462
    1DIPC   D3B22679   2.787   9.922   4.075 -0.0358  0.1172 -0.0809
    1DIPC   C4B22680   3.075   9.803   4.281 -0.0214  0.0569  0.1124
    1DIPC   NC322681  23.102   9.956   2.058  0.0042  0.1271 -0.0720
    1DIPC   PO422682  23.412   9.698   2.295  0.2798 -0.2874  0.0234
    1DIPC   GL122683  23.338   9.579   2.771  0.2794  0.0856 -0.0898
    1DIPC   GL222684  23.064   9.651   3.048  0.0019 -0.0436  0.1470
    1DIPC   C1A22685  23.429   9.274   3.101 -0.2755 -0.1546 -0.0209
    1DIPC   D2A22686  23.772   9.182   3.214 -0.1248 -0.1190  0.0927
    1DIPC   D3A22687  23.675   8.929   3.599  0.0775  0.0258  0.0102
    1DIPC   C4A22688  23.624   8.945   3.954  0.0534  0.3403 -0.2352
    1DIPC   C1B22689  22.854   9.655   3.437  0.3252  0.0026 -0.2371
    1DIPC   D2B22690  22.883  10.061   3.690  0.0079 -0.1429 -0.2431
    1DIPC   D3B22691  22.677  10.392   3.923  0.1341 -0.0739  0.0742
    1DIPC   C4B22692  22.817  10.835   3.924 -0.2837 -0.3594 -0.1935
    1DIPC   NC322693   7.122  18.726   1.794  0.0006 -0.0847  0.1684
    1DIPC   PO422694   6.635  18.721   1.666 -0.0585  0.0872  0.0248
    1DIPC   GL122695   6.444  18.922   2.002 -0.0835  0.1111  0.2765
    1DIPC   GL222696   6.106  18.916   1.989  0.1994  0.0064  0.1878
    1DIPC   C1A22697   6.490  18.917   2.377 -0.0533  0.1738  0.1072
    1DIPC   D2A22698   6.751  19.032   2.627  0.2386  0.0176 -0.0590
    1DIPC   D3A22699   6.480  19.039   2.943 -0.1110  0.2549 -0.0360
    1DIPC   C4A22700   6.411  18.727   3.213 -0.1677  0.0559  0.0832
    1DIPC   C1B22701   5.758  18.770   2.012  0.0735 -0.1989 -0.0789
    1DIPC   D2B22702   5.598  18.419   2.135  0.2260 -0.2516 -0.0783
    1DIPC   D3B22703   5.216  18.475   2.346  0.4541  0.1731 -0.3986
    1DIPC   C4B22704   5.095  18.483   2.826 -0.1821 -0.0839 -0.3926
    1DIPC   NC322705  11.508   3.841   2.509  0.0927 -0.1348  0.2215
    1DIPC   PO422706  11.903   3.879   2.486  0.1131  0.3237 -0.0678
    1DIPC   GL122707  12.010   3.952   2.896 -0.1199 -0.0922 -0.3149
    1DIPC   GL222708  11.797   3.897   3.105  0.1187  0.0145  0.1512
    1DIPC   C1A22709  12.158   4.157   3.275 -0.2326 -0.0372  0.1692
    1DIPC   D2A22710  11.996   4.457   3.666  0.0478 -0.2129  0.1713
    1DIPC   D3A22711  11.969   4.446   4.081 -0.0060 -0.3424 -0.0403
    1DIPC   C4A22712  12.322   4.365   4.193  0.1136  0.0879 -0.2842
    1DIPC   C1B22713  11.676   3.575   3.360 -0.2880 -0.2510  0.0341
    1DIPC   D2B22714  11.825   3.221   3.648 -0.0986  0.3421 -0.0019
    1DIPC   D3B22715  11.867   3.536   3.892 -0.2549  0.0845 -0.0417
    1DIPC   C4B22716  11.425   3.658   3.798  0.0632  0.1717 -0.3081
    1DIPC   NC322717   9.000  25.522   2.825 -0.0533 -0.1797  0.1630
    1DIPC   PO422718   8.776  25.164   2.947 -0.0156  0.0054 -0.0002
    1DIPC   GL122719   8.733  25.136   3.400  0.0133 -0.1101 -0.3153
    1DIPC   GL222720   8.626  24.913   3.552  0.0258 -0.0973 -0.0055
    1DIPC   C1A22721   9.007  25.102   3.794  0.1616  0.0660 -0.1920
    1DIPC   D2A22722   8.939  24.988   4.194 -0.0846 -0.2463 -0.1080
    1DIPC   D3A22723   9.065  25.375   4.435  0.0128 -0.2212 -0.0516
    1DIPC   C4A22724   9.437  25.422   4.712  0.1047 -0.5955  0.0604
    1DIPC   C1B22725   8.683  24.625   3.902  0.0523 -0.3239 -0.2970
    1DIPC   D2B22726   8.797  24.401   4.266  0.2654  0.1884 -0.4508
    1DIPC   D3B22727   8.337  24.306   4.167  0.0366  0.1294  0.0619
    1DIPC   C4B22728   8.161  24.600   4.433  0.2218  0.0419 -0.1157
    1DIPC   NC322729   8.423   4.776   3.619 -0.0035  0.0835  0.1405
    1DIPC   PO422730   8.568   4.626   3.169  0.0056  0.0969 -0.0964
    1DIPC   GL122731   8.688   4.361   3.534 -0.2800 -0.4465 -0.1372
    1DIPC   GL222732   8.761   4.039   3.482  0.2393 -0.1962  0.2572
    1DIPC   C1A22733   8.490   4.056   3.971 -0.1155 -0.2103 -0.2357
    1DIPC   D2A22734   8.356   3.912   4.281  0.2706 -0.4136 -0.2095
    1DIPC   D3A22735   8.454   3.500   4.394 -0.0476  0.1523  0.3293
    1DIPC   C4A22736   8.101   3.146   4.482 -0.0106 -0.2112  0.0631
    1DIPC   C1B22737   8.781   3.715   3.739  0.0936 -0.0826 -0.0067
    1DIPC   D2B22738   8.532   3.499   3.879  0.1123 -0.0345 -0.0438
    1DIPC   D3B22739   8.252   3.182   3.774 -0.1310  0.1326  0.2363
    1DIPC   C4B22740   8.161   2.857   4.108  0.2977 -0.0229 -0.1618
    1DIPC   NC322741  13.037  20.527   2.436  0.2067  0.1022  0.0683
    1DIPC   PO422742  13.434  20.707   2.181  0.1647 -0.0568 -0.2680
    1DIPC   GL122743  13.297  20.879   2.650  0.0071 -0.2084 -0.3098
    1DIPC   GL222744  13.356  21.106   2.826  0.1707 -0.3540  0.1853
    1DIPC   C1A22745  13.119  20.815   3.118 -0.1467  0.1675  0.0658
    1DIPC   D2A22746  13.023  20.752   3.514 -0.1634  0.3474 -0.1177
    1DIPC   D3A22747  12.753  21.139   3.500 -0.2158 -0.2513  0.2395
    1DIPC   C4A22748  12.517  21.207   3.750  0.0888 -0.0228 -0.0707
    1DIPC   C1B22749  13.731  21.047   3.002 -0.0451 -0.0701  0.1272
    1DIPC   D2B22750  14.046  21.014   3.238  0.2496 -0.1567  0.2036
    1DIPC   D3B22751  13.699  20.940   3.465 -0.0743 -0.1454  0.3738
    1DIPC   C4B22752  13.551  20.524   3.287 -0.4575 -0.1023  0.0108
    1DIPC   NC322753  13.555  13.956   2.979 -0.0344 -0.2943 -0.1308
    1DIPC   PO422754  13.715  14.133   3.505 -0.0689 -0.1422  0.1211
    1DIPC   GL122755  13.450  13.999   3.937  0.0712 -0.2289  0.0737
    1DIPC   GL222756  13.376  13.624   4.088 -0.0580 -0.1965  0.0322
    1DIPC   C1A22757  13.525  14.215   4.343 -0.0912 -0.0711  0.0073
    1DIPC   D2A22758  13.239  14.595   4.645 -0.2457  0.0200  0.0591
    1DIPC   D3A22759  13.340  14.651   5.107 -0.0037  0.3864 -0.2778
    1DIPC   C4A22760  13.196  15.031   5.385  0.0826  0.0843 -0.1927
    1DIPC   C1B22761  13.271  13.823   4.456 -0.1482  0.0699 -0.5767
    1DIPC   D2B22762  13.183  14.074   4.772 -0.0213 -0.2595  0.1856
    1DIPC   D3B22763  13.052  13.666   4.852 -0.0273 -0.2065 -0.0127
    1DIPC   C4B22764  12.874  13.239   4.815  0.2049  0.2900 -0.0326
    1DIPC   NC322765  18.481  26.444   2.777  0.0538 -0.1793 -0.0896
    1DIPC   PO422766  18.282  25.991   2.877  0.0911 -0.1274 -0.0790
    1DIPC   GL122767  18.433  26.227   3.254  0.2187 -0.0439  0.3677
    1DIPC   GL222768  18.706  26.110   3.412  0.1788  0.0017 -0.2319
    1DIPC   C1A22769  18.491  26.591   3.631 -0.0045  0.1886 -0.1500
    1DIPC   D2A22770  18.519  26.830   4.081 -0.2678 -0.1276  0.0775
    1DIPC   D3A22771  18.794  27.046   4.203  0.4292  0.0183  0.0496
    1DIPC   C4A22772  18.779  27.351   4.597  0.0794 -0.1272  0.1835
    1DIPC   C1B22773  18.649  26.047   3.781  0.0319 -0.1329  0.1636
    1DIPC   D2B22774  18.664  25.625   4.053 -0.0140  0.0719 -0.0231
    1DIPC   D3B22775  18.258  25.597   4.096  0.0752 -0.1989  0.0017
    1DIPC   C4B22776  18.069  25.445   4.503  0.2055  0.4463 -0.0497
    1DIPC   NC322777  27.645  23.306   2.057 -0.3559  0.1729  0.2515
    1DIPC   PO422778  27.259  23.309   2.236 -0.1680  0.1118  0.0216
    1DIPC   GL122779  27.534  22.987   2.448  0.1922 -0.1802 -0.0799
    1DIPC   GL222780  27.404  22.684   2.558 -0.0528 -0.0552 -0.0798
    1DIPC   C1A22781  27.813  22.854   2.824 -0.3132 -0.1009  0.0544
    1DIPC   D2A22782  27.935  22.996   3.123 -0.1722 -0.1462 -0.1794
    1DIPC   D3A22783  27.587  23.272   3.057 -0.2855  0.3814  0.0848
    1DIPC   C4A22784  27.162  23.417   3.193  0.0558 -0.0465  0.2480
    1DIPC   C1B22785  27.395  22.572   3.011 -0.1346  0.1959 -0.0152
    1DIPC   D2B22786  27.280  22.206   3.148 -0.3456 -0.3946  0.0181
    1DIPC   D3B22787  27.305  22.348   3.445  0.1932 -0.0594  0.0943
    1DIPC   C4B22788  27.162  22.151   3.684  0.1738 -0.0828 -0.0962
    1DIPC   NC322789  21.927   8.628   2.350 -0.0803 -0.0470  0.1206
    1DIPC   PO422790  22.065   8.186   2.338  0.2547  0.2046  0.0173
    1DIPC   GL122791  22.153   8.332   2.691  0.2369 -0.2323 -0.3033
    1DIPC   GL222792  22.297   8.189   3.030  0.1532  0.0723  0.2433
    1DIPC   C1A22793  21.867   8.665   3.022  0.0391 -0.1132 -0.2777
    1DIPC   D2A22794  21.584   8.815   3.255 -0.2648 -0.0977  0.1460
    1DIPC   D3A22795  21.147   8.908   3.426  0.0262  0.0059  0.0884
    1DIPC   C4A22796  20.959   8.541   3.656  0.2049 -0.1007  0.0009
    1DIPC   C1B22797  22.683   8.217   3.313 -0.0882 -0.1137 -0.1426
    1DIPC   D2B22798  23.129   8.309   3.453 -0.1457 -0.1284 -0.0361
    1DIPC   D3B22799  22.915   8.144   3.815 -0.2277 -0.2939 -0.0479
    1DIPC   C4B22800  22.540   7.989   3.752  0.2253 -0.2304  0.0801
    1DIPC   NC322801   8.947  26.340   2.858  0.0798  0.0539  0.3126
    1DIPC   PO422802   8.793  25.943   2.885 -0.0733  0.0528 -0.2747
    1DIPC   GL122803   8.795  25.821   3.300 -0.2797  0.0644  0.2079
    1DIPC   GL222804   9.054  25.899   3.474  0.0869  0.0504 -0.1419
    1DIPC   C1A22805   8.712  25.645   3.698 -0.1683 -0.2422 -0.0339
    1DIPC   D2A22806   8.788  25.462   4.046  0.0290 -0.2412 -0.2343
    1DIPC   D3A22807   8.308  25.626   4.163 -0.0611  0.0712 -0.0438
    1DIPC   C4A22808   8.195  25.865   4.565  0.1756 -0.2145  0.0964
    1DIPC   C1B22809   9.092  25.861   4.020  0.1190 -0.1616  0.0892
    1DIPC   D2B22810   8.817  25.847   4.371  0.0478  0.0797 -0.0793
    1DIPC   D3B22811   8.692  25.586   4.667  0.1183 -0.0081 -0.0735
    1DIPC   C4B22812   8.333  25.312   4.528 -0.3021  0.0516  0.3920
    1DIPC   NC322813  23.046   5.076   2.722 -0.0868  0.0753  0.1143
    1DIPC   PO422814  22.877   5.051   3.140  0.1966 -0.0343  0.1665
    1DIPC   GL122815  22.864   5.242   3.469 -0.1207  0.1975  0.1022
    1DIPC   GL222816  22.548   5.280   3.635 -0.0223 -0.0190 -0.0814
    1DIPC   C1A22817  23.084   5.296   3.862 -0.1031 -0.1095  0.1833
    1DIPC   D2A22818  23.184   5.098   4.185 -0.3701 -0.1409 -0.0174
    1DIPC   D3A22819  23.648   4.891   4.500 -0.2606  0.1839 -0.4802
    1DIPC   C4A22820  23.923   5.171   4.688  0.1490  0.0621  0.3917
    1DIPC   C1B22821  22.653   5.074   4.007 -0.0263 -0.0267 -0.0608
    1DIPC   D2B22822  22.840   4.738   4.171  0.0848  0.1792  0.3746
    1DIPC   D3B22823  22.493   4.539   3.920 -0.0418 -0.4180 -0.5472
    1DIPC   C4B22824  21.975   4.485   3.900  0.5252 -0.0827 -0.2494
    1DIPC   NC322825  29.959  26.595   2.726  0.2188 -0.2225 -0.0741
    1DIPC   PO422826  29.836  26.443   3.099 -0.2201 -0.3501 -0.0484
    1DIPC   GL122827  29.621  26.315   3.479 -0.0987  0.2136  0.2114
    1DIPC   GL222828  29.409  26.443   3.407 -0.1122  0.1197 -0.1856
    1DIPC   C1A22829  29.654  26.506   3.885 -0.0174 -0.2149 -0.3561
    1DIPC   D2A22830  29.476  26.461   4.365 -0.2006  0.0835 -0.1057
    1DIPC   D3A22831  29.922  26.536   4.504 -0.1226 -0.2647  0.2826
    1DIPC   C4A22832  30.143  26.934   4.433  0.1895  0.1260 -0.0499
    1DIPC   C1B22833  29.213  26.141   3.755 -0.1549 -0.1440 -0.1899
    1DIPC   D2B22834  29.002  26.252   4.147 -0.2712 -0.0283 -0.1724
    1DIPC   D3B22835  28.955  26.691   4.357 -0.3262 -0.0436 -0.3488
    1DIPC   C4B22836  29.237  26.914   4.332  0.0537 -0.0796 -0.0443
    1DIPC   NC322837  11.134   1.694   2.430  0.1110  0.1431 -0.2692
    1DIPC   PO422838  11.061   1.704   2.866 -0.0902 -0.2221  0.0583
    1DIPC   GL122839  10.907   1.839   3.213 -0.0789  0.0625  0.4279
    1DIPC   GL222840  11.166   1.907   3.330  0.0996  0.0802 -0.0447
    1DIPC   C1A22841  10.743   1.566   3.618 -0.1201  0.2084  0.0873
    1DIPC   D2A22842  10.863   1.544   3.989 -0.0389 -0.3280 -0.0782
    1DIPC   D3A22843  11.152   1.705   4.254  0.0421 -0.0632 -0.1248
    1DIPC   C4A22844  11.598   1.639   4.133 -0.2058 -0.1650  0.1583
    1DIPC   C1B22845  11.243   1.480   3.651 -0.1600 -0.3442  0.2136
    1DIPC   D2B22846  11.292   1.227   4.110 -0.1894  0.0383  0.0774
    1DIPC   D3B22847  11.339   1.415   4.545 -0.2030  0.1725 -0.2777
    1DIPC   C4B22848  11.029   1.030   4.768  0.0103  0.0006 -0.0688
    1DIPC   NC322849  24.477   3.645   3.486  0.3003 -0.1608 -0.1171
    1DIPC   PO422850  24.768   3.288   3.512 -0.4054  0.1772 -0.0960
    1DIPC   GL122851  24.681   3.542   3.937  0.0887  0.2901 -0.2302
    1DIPC   GL222852  24.932   3.647   4.190 -0.1162 -0.1087  0.0112
    1DIPC   C1A22853  24.313   3.672   4.280  0.0635 -0.0065 -0.1548
    1DIPC   D2A22854  24.145   3.893   4.625  0.0610  0.0606  0.2174
    1DIPC   D3A22855  24.265   3.784   4.965 -0.0159 -0.3078 -0.1418
    1DIPC   C4A22856  23.983   3.796   5.238 -0.0250 -0.0097 -0.5102
    1DIPC   C1B22857  24.700   3.772   4.492 -0.2157  0.1833 -0.0369
    1DIPC   D2B22858  24.396   3.353   4.636  0.1385  0.1958 -0.1172
    1DIPC   D3B22859  24.584   3.169   4.873 -0.1300  0.0541  0.0520
    1DIPC   C4B22860  24.829   2.883   4.847  0.0409  0.2751  0.1122
    1DIPC   NC322861   3.821   6.203   2.176 -0.1887 -0.1964  0.2305
    1DIPC   PO422862   3.849   6.601   2.593 -0.0409 -0.0106 -0.3126
    1DIPC   GL122863   3.987   6.819   3.028  0.0539 -0.0048 -0.1110
    1DIPC   GL222864   4.294   6.803   3.245  0.2626 -0.0413 -0.2459
    1DIPC   C1A22865   3.843   6.992   3.386 -0.0807 -0.1326  0.0158
    1DIPC   D2A22866   3.943   7.161   3.773  0.1186 -0.3674  0.1972
    1DIPC   D3A22867   3.646   6.948   3.944 -0.0797  0.0057 -0.3913
    1DIPC   C4A22868   3.815   6.625   4.204  0.0804 -0.5266 -0.2033
    1DIPC   C1B22869   4.463   6.980   3.595  0.0054  0.1987 -0.3423
    1DIPC   D2B22870   4.364   6.946   4.011  0.3279 -0.1104  0.0829
    1DIPC   D3B22871   4.307   6.547   3.860  0.5508  0.0030 -0.1313
    1DIPC   C4B22872   4.011   6.563   3.697 -0.1281 -0.1431 -0.1639
    1DIPC   NC322873   4.480   2.919   3.073 -0.2588  0.1598 -0.3214
    1DIPC   PO422874   4.486   2.631   3.374  0.0850  0.0919  0.0976
    1DIPC   GL122875   4.363   2.568   3.752  0.2472 -0.3013  0.0515
    1DIPC   GL222876   4.365   2.308   3.983 -0.0992  0.3024  0.2098
    1DIPC   C1A22877   3.916   2.470   3.932  0.1579  0.0859  0.1930
    1DIPC   D2A22878   3.623   2.394   4.198 -0.2004 -0.1487  0.1281
    1DIPC   D3A22879   3.474   2.736   4.217  0.2590 -0.1919 -0.0441
    1DIPC   C4A22880   3.527   2.747   4.646 -0.0836 -0.0723  0.3429
    1DIPC   C1B22881   4.151   2.359   4.394 -0.1244 -0.1556 -0.2472
    1DIPC   D2B22882   3.993   2.150   4.713 -0.1202 -0.1299 -0.0011
    1DIPC   D3B22883   3.613   2.327   4.852 -0.0126 -0.2214 -0.1701
    1DIPC   C4B22884   3.282   2.206   4.524 -0.1486  0.1521 -0.1163
    1DIPC   NC322885  13.759   8.020   2.582 -0.0345 -0.2656  0.2550
    1DIPC   PO422886  13.591   8.198   2.974  0.2518  0.0815 -0.2516
    1DIPC   GL122887  13.612   7.889   3.237 -0.0509  0.1293 -0.0499
    1DIPC   GL222888  13.530   7.625   3.192 -0.0240  0.1890  0.2788
    1DIPC   C1A22889  13.808   7.676   3.627 -0.3517 -0.1186  0.0625
    1DIPC   D2A22890  13.832   7.786   4.045  0.1292  0.1387  0.1297
    1DIPC   D3A22891  13.552   7.909   4.503 -0.2062 -0.2350  0.2185
    1DIPC   C4A22892  13.194   8.157   4.566  0.0765 -0.0987 -0.1525
    1DIPC   C1B22893  13.418   7.337   3.473  0.1525 -0.0042  0.0308
    1DIPC   D2B22894  13.585   7.309   3.862 -0.0070  0.0337  0.0947
    1DIPC   D3B22895  14.083   7.320   3.955  0.1634 -0.0106 -0.1837
    1DIPC   C4B22896  14.565   7.185   4.091  0.0353  0.3521 -0.0645
    1DIPC   NC322897   8.815  10.470   2.691 -0.0261 -0.0425 -0.1071
    1DIPC   PO422898   8.730  10.757   3.020  0.1792 -0.1651 -0.0634
    1DIPC   GL122899   8.709  10.640   3.512 -0.5020  0.0189 -0.1511
    1DIPC   GL222900   8.587  10.342   3.622 -0.0874  0.0991 -0.0896
    1DIPC   C1A22901   8.564  10.966   3.742 -0.1597 -0.0249 -0.3211
    1DIPC   D2A22902   8.250  11.009   4.065 -0.1068 -0.1269 -0.0714
    1DIPC   D3A22903   8.035  10.948   4.402  0.0578  0.0531 -0.3568
    1DIPC   C4A22904   7.680  11.132   4.542  0.0583 -0.0712  0.1488
    1DIPC   C1B22905   8.401   9.996   3.737  0.1233  0.2655  0.0709
    1DIPC   D2B22906   8.097   9.785   3.561  0.1066 -0.0518 -0.1298
    1DIPC   D3B22907   8.445   9.442   3.527  0.3242  0.1934  0.1038
    1DIPC   C4B22908   8.870   9.359   3.801 -0.0366 -0.1597 -0.1787
    1DIPC   NC322909  28.911   3.018   3.251 -0.0714  0.2435 -0.0138
    1DIPC   PO422910  28.745   2.785   3.540 -0.3722  0.0791  0.3547
    1DIPC   GL122911  28.723   3.097   3.856 -0.0564 -0.1695 -0.2501
    1DIPC   GL222912  28.391   3.163   4.027 -0.0170 -0.0449  0.1283
    1DIPC   C1A22913  28.938   3.180   4.244 -0.0169 -0.1728 -0.2771
    1DIPC   D2A22914  29.008   3.096   4.744 -0.0647  0.1952  0.1243
    1DIPC   D3A22915  29.154   3.405   5.008 -0.3684  0.0488 -0.2759
    1DIPC   C4A22916  28.935   3.734   5.225 -0.0742  0.1032  0.0825
    1DIPC   C1B22917  28.337   3.096   4.400 -0.1651  0.1949 -0.0905
    1DIPC   D2B22918  28.017   2.923   4.694  0.0066  0.1313 -0.2184
    1DIPC   D3B22919  28.371   2.713   4.743 -0.1556  0.2352  0.2822
    1DIPC   C4B22920  28.652   2.681   4.363  0.3129 -0.0419  0.0458
    1DIPC   NC322921  29.077   4.605   3.281  0.3786 -0.1990 -0.0660
    1DIPC   PO422922  29.440   4.707   3.176 -0.0656  0.1304 -0.2642
    1DIPC   GL122923  29.493   4.627   3.569 -0.1093 -0.4390 -0.0764
    1DIPC   GL222924  29.639   4.387   3.745  0.1753  0.1034 -0.4165
    1DIPC   C1A22925  29.669   4.774   4.003 -0.0092 -0.3125 -0.0324
    1DIPC   D2A22926  29.729   4.412   4.305  0.1607 -0.1322 -0.0283
    1DIPC   D3A22927  29.823   4.612   4.745  0.4149 -0.1241  0.2169
    1DIPC   C4A22928  29.656   4.896   5.050  0.3704 -0.0766  0.0085
    1DIPC   C1B22929  29.825   4.105   3.951 -0.1801 -0.0846 -0.0924
    1DIPC   D2B22930  29.726   3.877   4.356  0.3469  0.2862 -0.0043
    1DIPC   D3B22931  30.185   3.888   4.391 -0.4682  0.0147 -0.0438
    1DIPC   C4B22932  30.339   4.089   4.092  0.0118  0.0637  0.4467
    1DIPC   NC322933   7.157  22.179   2.193  0.0017  0.0195 -0.0365
    1DIPC   PO422934   6.900  22.428   2.154  0.0971 -0.1675  0.0210
    1DIPC   GL122935   6.802  22.538   2.608 -0.2948 -0.0168 -0.1776
    1DIPC   GL222936   7.070  22.792   2.796  0.0858 -0.0875 -0.2649
    1DIPC   C1A22937   6.840  22.412   3.107 -0.2058 -0.0060  0.0062
    1DIPC   D2A22938   6.752  22.528   3.422  0.0738 -0.3258 -0.0876
    1DIPC   D3A22939   6.861  22.440   3.888 -0.1813 -0.1786 -0.2069
    1DIPC   C4A22940   6.783  22.730   4.114 -0.0366 -0.1513  0.0095
    1DIPC   C1B22941   7.034  22.919   3.296 -0.0353 -0.0198 -0.1785
    1DIPC   D2B22942   7.104  22.878   3.711  0.1793 -0.0751 -0.3747
    1DIPC   D3B22943   7.254  22.457   3.470  0.5465  0.0701  0.2857
    1DIPC   C4B22944   6.970  22.095   3.573 -0.2335  0.1974 -0.2723
    1DIPC   NC322945  28.667  10.341   2.886  0.1455  0.1269  0.1665
    1DIPC   PO422946  28.991  10.022   2.891  0.0294  0.1046  0.0588
    1DIPC   GL122947  29.036  10.234   3.291 -0.0286  0.0043 -0.0269
    1DIPC   GL222948  29.282  10.026   3.439 -0.1276  0.0002 -0.0275
    1DIPC   C1A22949  29.113  10.319   3.780  0.2040 -0.1543  0.2263
    1DIPC   D2A22950  28.919  10.118   4.183  0.0489  0.1587  0.0873
    1DIPC   D3A22951  28.795  10.425   4.513  0.1741 -0.0917  0.2159
    1DIPC   C4A22952  28.453  10.715   4.503  0.2301  0.2110 -0.0857
    1DIPC   C1B22953  28.915   9.872   3.622 -0.1566 -0.0018  0.1269
    1DIPC   D2B22954  28.820   9.434   3.718 -0.0851 -0.1256  0.1240
    1DIPC   D3B22955  28.417   9.110   3.876 -0.0499  0.4119  0.2722
    1DIPC   C4B22956  28.365   8.898   4.192 -0.0598  0.0849  0.1716
    1DIPC   NC322957  15.590  25.967   2.966  0.0309  0.0094 -0.2827
    1DIPC   PO422958  16.069  25.917   2.994 -0.0697  0.1043 -0.0457
    1DIPC   GL122959  16.339  26.024   3.368  0.2302  0.0785 -0.0247
    1DIPC   GL222960  16.227  26.188   3.662  0.0583 -0.0707  0.0424
    1DIPC   C1A22961  16.307  25.776   3.839  0.0732 -0.1996 -0.0009
    1DIPC   D2A22962  16.128  25.618   4.153 -0.0283 -0.2330 -0.2130
    1DIPC   D3A22963  15.924  25.602   4.669 -0.2253  0.4796  0.0001
    1DIPC   C4A22964  16.114  25.251   4.900  0.0984 -0.0415  0.0055
    1DIPC   C1B22965  15.938  26.232   3.937 -0.0644  0.0917  0.0589
    1DIPC   D2B22966  15.935  26.456   4.372 -0.3852  0.3534 -0.0747
    1DIPC   D3B22967  16.025  26.625   4.758 -0.1023 -0.1698  0.0402
    1DIPC   C4B22968  15.698  26.710   5.057 -0.0408 -0.3073 -0.0136
    1DIPC   NC322969  19.746  21.453   2.332 -0.4103  0.1257  0.2790
    1DIPC   PO422970  19.445  21.176   2.505  0.4303 -0.0592 -0.0401
    1DIPC   GL122971  19.146  21.319   2.837  0.0554 -0.0316  0.1561
    1DIPC   GL222972  19.275  21.359   3.117 -0.1938 -0.1593 -0.0237
    1DIPC   C1A22973  18.747  21.297   3.087 -0.0561 -0.1170 -0.3362
    1DIPC   D2A22974  18.438  21.403   3.406 -0.1449  0.0347  0.3874
    1DIPC   D3A22975  18.079  21.691   3.239 -0.2446 -0.1832 -0.1801
    1DIPC   C4A22976  17.841  21.874   3.546  0.1526 -0.3002 -0.1243
    1DIPC   C1B22977  19.176  21.365   3.564  0.0639  0.1816  0.1387
    1DIPC   D2B22978  18.858  21.563   3.695 -0.1233  0.2812  0.1270
    1DIPC   D3B22979  19.166  21.627   4.001 -0.0504 -0.0079  0.0451
    1DIPC   C4B22980  19.371  21.216   4.064 -0.0405  0.0068  0.0267
    1DIPC   NC322981  11.948  16.940   2.583 -0.0628 -0.0840  0.1014
    1DIPC   PO422982  12.159  16.843   2.986  0.1385  0.1538 -0.1471
    1DIPC   GL122983  12.081  16.764   3.384 -0.0092 -0.3638 -0.2348
    1DIPC   GL222984  11.820  16.965   3.428  0.2018  0.0739  0.0300
    1DIPC   C1A22985  12.229  16.518   3.707 -0.0508 -0.2054  0.3134
    1DIPC   D2A22986  12.266  16.262   4.157 -0.0715  0.0794 -0.1620
    1DIPC   D3A22987  12.279  16.773   4.177  0.3506 -0.0310  0.1415
    1DIPC   C4A22988  12.191  16.911   4.510  0.0610 -0.1398 -0.0088
    1DIPC   C1B22989  11.726  17.017   3.919 -0.0550 -0.0640 -0.2656
    1DIPC   D2B22990  11.800  16.614   4.239  0.1208 -0.3223 -0.0918
    1DIPC   D3B22991  11.658  16.995   4.506  0.0500 -0.3250 -0.0774
    1DIPC   C4B22992  11.242  16.987   4.715  0.4022 -0.0290  0.1977
    1DIPC   NC322993  13.407   7.501   2.652  0.2550 -0.2713  0.1938
    1DIPC   PO422994  13.882   7.555   2.589 -0.1543 -0.1219 -0.0422
    1DIPC   GL122995  14.028   7.631   2.992  0.0555  0.3341  0.2412
    1DIPC   GL222996  14.000   7.375   3.205 -0.0883 -0.0935  0.0497
    1DIPC   C1A22997  14.313   7.718   3.387 -0.1611 -0.4235  0.0351
    1DIPC   D2A22998  14.284   7.839   3.944 -0.0431 -0.0733  0.0194
    1DIPC   D3A22999  14.254   7.651   4.356  0.1129 -0.0853  0.0976
    1DIPC   C4A23000  13.830   7.423   4.374  0.0395  0.2058 -0.1688
    1DIPC   C1B23001  13.917   7.125   3.524  0.0893 -0.1630 -0.1069
    1DIPC   D2B23002  14.039   6.740   3.896 -0.6750  0.1004 -0.0460
    1DIPC   D3B23003  14.213   6.910   4.262  0.1403  0.1036  0.0248
    1DIPC   C4B23004  13.853   6.921   4.653 -0.0400 -0.1806 -0.2580
    1DIPC   NC323005  23.709  26.714   2.920  0.2439  0.0759 -0.0396
    1DIPC   PO423006  24.184  26.895   2.822  0.1493  0.1579 -0.0251
    1DIPC   GL123007  24.095  26.803   3.314 -0.0509 -0.3891 -0.1075
    1DIPC   GL223008  23.985  27.179   3.465 -0.2289 -0.3745 -0.0060
    1DIPC   C1A23009  24.165  26.545   3.596 -0.1460 -0.1213  0.2527
    1DIPC   D2A23010  24.409  26.290   3.904 -0.0295 -0.1459 -0.2921
    1DIPC   D3A23011  24.276  26.565   4.234  0.0754  0.0532 -0.0780
    1DIPC   C4A23012  24.574  26.881   4.278 -0.2697  0.1259 -0.1907
    1DIPC   C1B23013  24.067  27.353   3.816 -0.1453  0.0198 -0.0763
    1DIPC   D2B23014  24.042  27.475   4.224 -0.1816  0.0070 -0.0181
    1DIPC   D3B23015  23.753  27.637   4.602 -0.4260 -0.0112 -0.0910
    1DIPC   C4B23016  23.497  27.856   4.704 -0.0571  0.1645 -0.0786
    1DIPC   NC323017  28.289  26.634   2.343 -0.0106  0.0586 -0.0321
    1DIPC   PO423018  28.128  26.513   2.756  0.2082  0.4997 -0.0581
    1DIPC   GL123019  28.280  26.284   3.155  0.2474  0.2050 -0.0863
    1DIPC   GL223020  28.546  26.152   3.102 -0.0872 -0.2187  0.1742
    1DIPC   C1A23021  28.205  26.426   3.618  0.2102  0.0900 -0.1260
    1DIPC   D2A23022  28.427  26.236   3.998  0.2224 -0.1154 -0.0994
    1DIPC   D3A23023  28.177  25.993   4.358 -0.2195 -0.2927 -0.1736
    1DIPC   C4A23024  27.725  25.956   4.295 -0.1718  0.3456 -0.1793
    1DIPC   C1B23025  28.493  25.903   3.482  0.1366  0.0042 -0.1412
    1DIPC   D2B23026  28.243  25.786   3.871 -0.1677 -0.0887 -0.1207
    1DIPC   D3B23027  27.807  25.593   3.995  0.0326  0.3633 -0.0862
    1DIPC   C4B23028  27.776  25.285   4.211  0.0741 -0.1736  0.0626
    1DIPC   NC323029  28.475   1.987   4.060  0.4288  0.1799  0.0490
    1DIPC   PO423030  28.504   1.630   3.999 -0.0004 -0.1217 -0.2088
    1DIPC   GL123031  28.179   1.508   4.305  0.1054  0.3102 -0.0418
    1DIPC   GL223032  27.880   1.294   4.191 -0.0273 -0.0450  0.3381
    1DIPC   C1A23033  28.304   1.679   4.625  0.1405  0.0612 -0.2055
    1DIPC   D2A23034  28.484   1.401   5.006  0.1059 -0.1167  0.2694
    1DIPC   D3A23035  28.421   1.217   5.375  0.0653  0.0683  0.1582
    1DIPC   C4A23036  28.647   1.084   5.599  0.1952 -0.1076 -0.0160
    1DIPC   C1B23037  27.752   1.472   4.590  0.3922 -0.1620  0.0226
    1DIPC   D2B23038  27.917   1.455   4.942  0.1026 -0.2698 -0.0404
    1DIPC   D3B23039  27.953   1.272   5.323  0.0218  0.1536 -0.2994
    1DIPC   C4B23040  28.084   0.888   5.136  0.1619 -0.2229  0.0824
    1DIPC   NC323041  11.607  17.718   2.297  0.1188  0.1144 -0.1652
    1DIPC   PO423042  12.008  17.395   2.356  0.1134  0.0600  0.1025
    1DIPC   GL123043  12.013  17.696   2.569 -0.2594 -0.0961 -0.0830
    1DIPC   GL223044  11.985  18.145   2.606 -0.1064  0.0417  0.2599
    1DIPC   C1A23045  12.229  17.732   2.864  0.0372 -0.3805 -0.3329
    1DIPC   D2A23046  12.302  17.663   3.282 -0.1651  0.0917 -0.2222
    1DIPC   D3A23047  12.382  17.251   3.332  0.0785  0.0686  0.1259
    1DIPC   C4A23048  12.229  17.120   3.697 -0.0443 -0.0734  0.1029
    1DIPC   C1B23049  11.929  18.263   3.065 -0.1611 -0.0499 -0.0832
    1DIPC   D2B23050  11.632  18.371   3.480 -0.1688 -0.1539  0.0015
    1DIPC   D3B23051  11.757  18.180   3.900 -0.1629  0.2837  0.3559
    1DIPC   C4B23052  11.520  17.800   4.059 -0.2613  0.3419  0.0172
    1DIPC   NC323053  22.327  17.770   2.078  0.0091  0.0289  0.0305
    1DIPC   PO423054  22.222  18.087   2.350 -0.2175  0.1696  0.1849
    1DIPC   GL123055  22.223  18.253   2.697 -0.0365  0.4650  0.0467
    1DIPC   GL223056  21.921  18.097   2.835  0.1779  0.0029  0.1520
    1DIPC   C1A23057  22.277  18.423   3.048  0.1770 -0.1068  0.0631
    1DIPC   D2A23058  22.034  18.234   3.395  0.1385  0.0386  0.2563
    1DIPC   D3A23059  22.073  18.475   3.779 -0.1658 -0.0771 -0.0619
    1DIPC   C4A23060  22.371  18.357   4.203  0.1379 -0.0473 -0.1185
    1DIPC   C1B23061  21.765  18.396   2.959  0.2877 -0.1826  0.0293
    1DIPC   D2B23062  21.420  18.568   3.011  0.4975  0.0973 -0.0309
    1DIPC   D3B23063  21.436  18.947   3.163  0.6167 -0.1379 -0.4977
    1DIPC   C4B23064  21.207  19.222   3.438 -0.1968  0.0305 -0.0202
    1DIPC   NC323065   7.391  29.591   2.763  0.0118  0.0435  0.1126
    1DIPC   PO423066   7.446  29.729   3.134  0.1446  0.0663 -0.1570
    1DIPC   GL123067   7.222  29.562   3.514  0.0909 -0.0634  0.1168
    1DIPC   GL223068   7.414  29.183   3.562 -0.1303 -0.2818 -0.0651
    1DIPC   C1A23069   7.248  29.545   3.958  0.0722 -0.1773 -0.1947
    1DIPC   D2A23070   7.557  29.733   4.226  0.0804  0.0379  0.0361
    1DIPC   D3A23071   7.902  29.461   4.423 -0.2824 -0.1554 -0.1612
    1DIPC   C4A23072   7.899  29.465   4.912 -0.2822  0.3131  0.2611
    1DIPC   C1B23073   7.932  29.216   3.499 -0.0076 -0.1247  0.0743
    1DIPC   D2B23074   8.114  29.598   3.753  0.0356  0.0160 -0.3087
    1DIPC   D3B23075   7.767  29.728   3.500 -0.1205 -0.0010  0.2188
    1DIPC   C4B23076   7.450  29.928   3.778 -0.0894  0.0060 -0.1971
    1DIPC   NC323077   6.751   3.467   3.822 -0.1032 -0.1956  0.0676
    1DIPC   PO423078   7.163   3.538   3.783 -0.0238 -0.0181  0.1823
    1DIPC   GL123079   7.152   3.454   4.208 -0.2554 -0.2941  0.4801
    1DIPC   GL223080   6.889   3.344   4.312  0.5523 -0.1930  0.0575
    1DIPC   C1A23081   7.335   3.132   4.454  0.1398  0.0574 -0.1509
    1DIPC   D2A23082   7.482   2.864   4.782 -0.2580  0.2176  0.0872
    1DIPC   D3A23083   7.161   3.189   4.933 -0.0249  0.3163 -0.3352
    1DIPC   C4A23084   7.018   3.289   5.391 -0.3599  0.1121 -0.0701
    1DIPC   C1B23085   6.854   3.614   4.597 -0.2700  0.4446  0.3074
    1DIPC   D2B23086   6.828   4.027   4.638  0.0705 -0.0975 -0.0716
    1DIPC   D3B23087   6.573   4.277   4.383 -0.1029  0.3713  0.1558
    1DIPC   C4B23088   6.234   4.585   4.454 -0.0717  0.2518  0.0986
    1DIPC   NC323089  15.426  27.747   2.892  0.0358 -0.2375 -0.4212
    1DIPC   PO423090  15.160  27.521   2.861  0.0024  0.0001 -0.1951
    1DIPC   GL123091  14.918  27.411   3.233 -0.1245  0.0929  0.0026
    1DIPC   GL223092  14.613  27.357   3.343 -0.2616 -0.0293  0.2512
    1DIPC   C1A23093  15.002  27.357   3.703 -0.1989 -0.3998 -0.0803
    1DIPC   D2A23094  15.100  27.319   4.087  0.0444  0.0766  0.0877
    1DIPC   D3A23095  15.459  27.406   4.168  0.0986  0.0073  0.0647
    1DIPC   C4A23096  15.865  27.307   3.808 -0.1633  0.0469  0.0041
    1DIPC   C1B23097  14.602  27.179   3.829  0.0232  0.0098  0.1937
    1DIPC   D2B23098  14.590  27.514   4.129 -0.2445 -0.1004  0.0644
    1DIPC   D3B23099  14.770  27.644   4.492 -0.1373 -0.1750  0.1121
    1DIPC   C4B23100  15.206  27.659   4.581  0.2048 -0.1874 -0.1069
    1DIPC   NC323101  10.996  22.282   2.181  0.2760 -0.2232 -0.2752
    1DIPC   PO423102  11.233  22.589   2.425  0.3891 -0.1599  0.1257
    1DIPC   GL123103  11.286  22.582   2.876 -0.1586 -0.2486 -0.1425
    1DIPC   GL223104  11.394  22.848   2.999 -0.0283  0.0054  0.0076
    1DIPC   C1A23105  11.395  22.305   3.204 -0.0442  0.0506  0.3336
    1DIPC   D2A23106  11.493  22.066   3.505  0.2431 -0.2249 -0.0382
    1DIPC   D3A23107  11.223  21.927   3.837  0.1583  0.0239 -0.1683
    1DIPC   C4A23108  11.348  22.132   4.215  0.2289 -0.2206 -0.1433
    1DIPC   C1B23109  11.255  22.929   3.426  0.3085 -0.2271  0.0126
    1DIPC   D2B23110  11.161  22.603   3.722 -0.2570  0.0242 -0.1895
    1DIPC   D3B23111  11.585  22.403   3.839 -0.2117 -0.0417  0.1213
    1DIPC   C4B23112  12.030  22.530   4.014 -0.0936 -0.1379 -0.1537
    1DIPC   NC323113  29.175   5.561   2.752  0.0316  0.0752  0.1271
    1DIPC   PO423114  29.025   5.501   3.210 -0.0958  0.0621  0.0061
    1DIPC   GL123115  28.986   6.038   3.494 -0.1518 -0.2250 -0.1355
    1DIPC   GL223116  29.243   6.036   3.734 -0.1522 -0.0687  0.1209
    1DIPC   C1A23117  28.869   6.475   3.752  0.0986  0.2263 -0.1188
    1DIPC   D2A23118  28.977   6.845   3.922  0.0816  0.0112 -0.2042
    1DIPC   D3A23119  29.153   7.185   3.625  0.0653  0.5932 -0.1337
    1DIPC   C4A23120  29.292   7.596   3.762 -0.2364 -0.0093  0.1912
    1DIPC   C1B23121  29.046   5.813   3.960  0.0992  0.1188  0.3557
    1DIPC   D2B23122  28.796   5.406   4.204  0.0076  0.2625 -0.1889
    1DIPC   D3B23123  28.872   5.201   3.884 -0.0765 -0.0501 -0.2863
    1DIPC   C4B23124  29.242   4.994   3.876 -0.0051 -0.1731 -0.1387
    1DIPC   NC323125  13.629  16.835   2.667  0.0323 -0.1790  0.1600
    1DIPC   PO423126  13.934  16.516   2.920 -0.0486  0.1798 -0.0513
    1DIPC   GL123127  14.058  16.455   3.377  0.0151 -0.0937  0.1349
    1DIPC   GL223128  14.316  16.247   3.479  0.0062  0.1171  0.0489
    1DIPC   C1A23129  14.088  16.443   3.837  0.1415  0.2216 -0.1770
    1DIPC   D2A23130  14.318  16.514   4.161 -0.1369 -0.1758 -0.1308
    1DIPC   D3A23131  13.980  16.214   4.266  0.2581 -0.0013 -0.1167
    1DIPC   C4A23132  13.993  16.047   4.614 -0.1734  0.1435 -0.2493
    1DIPC   C1B23133  14.473  16.750   3.633 -0.0207  0.3666 -0.1178
    1DIPC   D2B23134  14.441  17.186   3.609 -0.0541  0.2492 -0.0957
    1DIPC   D3B23135  14.357  17.432   4.007  0.0037 -0.1027  0.0284
    1DIPC   C4B23136  13.965  17.524   4.288 -0.1664 -0.3771 -0.1710
    1DIPC   NC323137   4.928   9.106   2.534  0.0876 -0.1008 -0.1685
    1DIPC   PO423138   4.598   8.786   2.611  0.1344  0.2218  0.2479
    1DIPC   GL123139   4.766   8.624   3.001  0.2861 -0.1139 -0.0929
    1DIPC   GL223140   4.474   8.560   3.270  0.0765 -0.5013  0.1367
    1DIPC   C1A23141   4.882   8.912   3.517 -0.0954  0.3526  0.2801
    1DIPC   D2A23142   4.917   8.936   3.971  0.1142  0.0529 -0.1849
    1DIPC   D3A23143   4.617   8.854   4.328  0.1973  0.1252  0.2120
    1DIPC   C4A23144   4.553   8.408   4.491  0.0778  0.0901  0.1527
    1DIPC   C1B23145   4.200   8.272   3.488 -0.3658  0.1292  0.0305
    1DIPC   D2B23146   3.957   7.898   3.413  0.0850  0.0173 -0.0784
    1DIPC   D3B23147   3.752   8.188   3.645 -0.0576 -0.0476  0.1922
    1DIPC   C4B23148   4.032   8.700   3.523  0.0044 -0.1287 -0.5331
    1DIPC   NC323149  16.447  25.895   2.582 -0.1000  0.4336  0.0488
    1DIPC   PO423150  16.173  25.496   2.597 -0.2283 -0.0997 -0.0629
    1DIPC   GL123151  16.103  25.403   3.027 -0.2495  0.1045  0.0241
    1DIPC   GL223152  15.853  25.115   3.015 -0.0600 -0.2775 -0.1719
    1DIPC   C1A23153  16.291  25.442   3.455  0.1647 -0.1501  0.1127
    1DIPC   D2A23154  16.130  25.312   3.805 -0.0523  0.1210 -0.1041
    1DIPC   D3A23155  16.482  25.213   4.044  0.0218 -0.1499  0.0118
    1DIPC   C4A23156  16.457  25.342   4.493  0.1582  0.0977 -0.1077
    1DIPC   C1B23157  16.105  24.980   3.322  0.0989 -0.1563 -0.1756
    1DIPC   D2B23158  16.040  24.844   3.792 -0.1222  0.1955 -0.0448
    1DIPC   D3B23159  16.064  25.074   4.248 -0.2074 -0.1272 -0.1047
    1DIPC   C4B23160  15.782  24.983   4.515 -0.1615  0.1370  0.1026
    1DIPC   NC323161  21.412   5.322   2.987  0.1229  0.0596 -0.3299
    1DIPC   PO423162  21.001   5.387   2.784 -0.1379  0.1299  0.0385
    1DIPC   GL123163  20.948   5.345   3.208  0.0797  0.0744 -0.1501
    1DIPC   GL223164  20.873   5.553   3.494  0.0386  0.0816 -0.1738
    1DIPC   C1A23165  20.745   5.095   3.489 -0.1460  0.0916  0.1921
    1DIPC   D2A23166  20.725   5.111   3.986 -0.0250 -0.7301  0.2440
    1DIPC   D3A23167  20.296   5.107   3.862 -0.1008  0.2446  0.1538
    1DIPC   C4A23168  19.933   5.317   3.921 -0.1541  0.0693  0.2003
    1DIPC   C1B23169  21.119   5.357   3.785 -0.0494 -0.2466  0.1348
    1DIPC   D2B23170  21.210   4.929   4.051 -0.0634  0.3209  0.2106
    1DIPC   D3B23171  21.093   4.979   4.454 -0.2165  0.1611 -0.3769
    1DIPC   C4B23172  21.272   4.705   4.756  0.1366 -0.0868 -0.1540
    1DIPC   NC323173  17.553   7.925   2.579  0.1812 -0.0226 -0.0246
    1DIPC   PO423174  17.382   8.309   2.461 -0.1789  0.0179  0.0310
    1DIPC   GL123175  17.297   8.336   2.822  0.0764  0.0396  0.0953
    1DIPC   GL223176  17.065   8.558   2.915 -0.0004 -0.2028 -0.0566
    1DIPC   C1A23177  17.487   8.416   3.228 -0.0867 -0.0354 -0.1839
    1DIPC   D2A23178  17.855   8.390   3.549  0.1573  0.0574 -0.1198
    1DIPC   D3A23179  17.880   7.995   3.751  0.0241  0.1491  0.1437
    1DIPC   C4A23180  17.664   7.826   4.052 -0.0074  0.1397  0.0898
    1DIPC   C1B23181  16.729   8.327   3.142 -0.3538 -0.1010 -0.1423
    1DIPC   D2B23182  16.533   8.075   3.464 -0.2984  0.1074 -0.0653
    1DIPC   D3B23183  16.723   8.229   3.788  0.0574 -0.1581 -0.0609
    1DIPC   C4B23184  16.895   8.604   4.030  0.0242  0.3870  0.0182
    1DIPC   NC323185  23.942  29.123   2.602  0.3701  0.2483  0.2094
    1DIPC   PO423186  23.962  28.992   3.006 -0.0889 -0.0286 -0.0164
    1DIPC   GL123187  23.947  29.079   3.462 -0.3121 -0.0574 -0.0845
    1DIPC   GL223188  24.037  28.834   3.647 -0.0484 -0.0699 -0.2215
    1DIPC   C1A23189  23.675  29.490   3.619 -0.1035  0.2118  0.2227
    1DIPC   D2A23190  23.346  29.566   3.796  0.2881  0.0869  0.1121
    1DIPC   D3A23191  23.177  29.173   3.949 -0.0546  0.2070 -0.1177
    1DIPC   C4A23192  22.745  28.827   3.984  0.0954  0.0922 -0.1287
    1DIPC   C1B23193  23.863  28.707   3.943 -0.4945  0.3509  0.0831
    1DIPC   D2B23194  23.784  28.460   4.250 -0.1152  0.0910 -0.1138
    1DIPC   D3B23195  23.731  28.195   3.881 -0.2151  0.1644  0.2072
    1DIPC   C4B23196  23.970  27.859   3.745 -0.1090 -0.0631  0.0686
    1DIPC   NC323197  13.963   4.914   2.652  0.0697  0.1606  0.1381
    1DIPC   PO423198  13.463   4.843   2.558 -0.3209  0.0700  0.0364
    1DIPC   GL123199  13.609   5.044   3.029  0.2905 -0.0261 -0.0735
    1DIPC   GL223200  13.855   5.313   3.029 -0.0417 -0.3078  0.2605
    1DIPC   C1A23201  13.477   5.444   3.310 -0.1187  0.3257 -0.1041
    1DIPC   D2A23202  13.675   5.826   3.396  0.1549  0.0896  0.1207
    1DIPC   D3A23203  13.537   5.907   3.904  0.0205  0.0761  0.2245
    1DIPC   C4A23204  13.651   5.850   4.227  0.0334 -0.1127 -0.1844
    1DIPC   C1B23205  13.930   5.009   3.424 -0.1820  0.0026  0.0581
    1DIPC   D2B23206  14.205   4.988   3.747 -0.0270  0.1569  0.4367
    1DIPC   D3B23207  13.916   4.647   3.883  0.1926  0.2219  0.1793
    1DIPC   C4B23208  13.981   4.251   3.765 -0.1359  0.3094 -0.2221
    1DIPC   NC323209  20.398   7.459   2.626 -0.6350  0.1161 -0.1639
    1DIPC   PO423210  20.720   7.300   2.867 -0.2570  0.0342 -0.1899
    1DIPC   GL123211  20.928   7.108   3.133  0.0626  0.0679 -0.1595
    1DIPC   GL223212  20.790   6.848   3.217  0.1924 -0.1535  0.0334
    1DIPC   C1A23213  21.109   6.986   3.589 -0.2624 -0.1353 -0.1341
    1DIPC   D2A23214  21.327   6.630   3.919 -0.0686 -0.2361 -0.0871
    1DIPC   D3A23215  21.666   6.690   4.127 -0.2675 -0.2276  0.0317
    1DIPC   C4A23216  21.827   7.054   4.365  0.0768 -0.1279  0.3142
    1DIPC   C1B23217  20.477   6.629   3.494 -0.1401  0.1058 -0.3420
    1DIPC   D2B23218  20.292   6.585   3.926  0.0168  0.0299  0.1860
    1DIPC   D3B23219  20.226   6.983   4.175 -0.2635 -0.0238 -0.0914
    1DIPC   C4B23220  20.494   7.338   4.356  0.1592 -0.2821 -0.3824
    1DIPC   NC323221  27.087  29.565   4.080 -0.2998 -0.2093  0.1006
    1DIPC   PO423222  26.923  29.978   3.867 -0.0313  0.2358 -0.0486
    1DIPC   GL123223  26.949  30.085   4.315  0.1313 -0.1027 -0.1611
    1DIPC   GL223224  26.755  29.850   4.386  0.1276  0.0181 -0.2407
    1DIPC   C1A23225  27.269  30.028   4.576  0.3470 -0.0575 -0.0647
    1DIPC   D2A23226  27.421  29.871   4.901  0.1018 -0.1265 -0.2649
    1DIPC   D3A23227  27.371  30.135   5.258 -0.1036 -0.1314 -0.1029
    1DIPC   C4A23228  27.334  30.000   5.610 -0.3025  0.0092 -0.0715
    1DIPC   C1B23229  26.933  29.688   4.813  0.1258 -0.1453 -0.1860
    1DIPC   D2B23230  27.124  29.564   5.287 -0.2232 -0.2513  0.4734
    1DIPC   D3B23231  27.020  29.635   5.728 -0.1159  0.1085  0.1366
    1DIPC   C4B23232  26.917  29.349   6.092 -0.1353  0.0603  0.2872
    1DIPC   NC323233   6.153  22.470   1.605 -0.0697  0.1204 -0.0001
    1DIPC   PO423234   6.183  22.625   2.073  0.2209 -0.2822  0.0388
    1DIPC   GL123235   6.285  22.280   2.352  0.0515 -0.0460 -0.0182
    1DIPC   GL223236   6.556  22.145   2.387  0.2712 -0.0754  0.0674
    1DIPC   C1A23237   6.217  21.858   2.614  0.0582  0.0222 -0.0418
    1DIPC   D2A23238   6.147  21.415   2.660  0.0367 -0.1400 -0.0011
    1DIPC   D3A23239   6.067  21.136   3.092 -0.0677  0.2657 -0.0244
    1DIPC   C4A23240   6.344  21.266   3.454 -0.0329 -0.1385 -0.0380
    1DIPC   C1B23241   6.462  21.773   2.126  0.4056 -0.1825  0.2090
    1DIPC   D2B23242   6.238  21.415   2.126  0.0861 -0.2271 -0.3504
    1DIPC   D3B23243   6.000  21.077   2.016  0.1304  0.1257 -0.2723
    1DIPC   C4B23244   6.202  20.705   1.936  0.1890 -0.0952 -0.0216
    1DIPC   NC323245  22.619   3.458   2.944 -0.0298 -0.1125  0.1800
    1DIPC   PO423246  22.449   3.699   3.238  0.0750 -0.1497 -0.0329
    1DIPC   GL123247  22.368   3.641   3.662 -0.0613  0.1463  0.0394
    1DIPC   GL223248  22.634   3.869   3.764 -0.1823 -0.1152  0.4242
    1DIPC   C1A23249  22.548   3.410   4.078 -0.2117 -0.1319  0.0540
    1DIPC   D2A23250  22.498   3.104   4.249  0.2168 -0.1398 -0.0622
    1DIPC   D3A23251  22.101   2.899   4.425 -0.2367 -0.3078 -0.0725
    1DIPC   C4A23252  21.762   3.125   4.248  0.0231  0.0711  0.1660
    1DIPC   C1B23253  22.336   3.875   4.191  0.0670  0.0294 -0.0419
    1DIPC   D2B23254  22.409   4.125   4.754  0.1864 -0.2808  0.2981
    1DIPC   D3B23255  22.207   4.370   4.429  0.4218  0.1708 -0.1933
    1DIPC   C4B23256  21.867   4.516   4.599  0.0792  0.2165  0.1308
    1DIPC   NC323257   4.616  19.532   1.473 -0.1848 -0.3036  0.0353
    1DIPC   PO423258   4.845  19.847   1.585 -0.0574 -0.0075 -0.2110
    1DIPC   GL123259   4.920  19.914   1.960 -0.0039  0.0001  0.0622
    1DIPC   GL223260   4.746  20.140   2.047 -0.0587 -0.3770 -0.3134
    1DIPC   C1A23261   4.956  19.730   2.304  0.2460 -0.2763  0.2610
    1DIPC   D2A23262   4.803  19.878   2.613  0.0000 -0.2506 -0.1294
    1DIPC   D3A23263   5.134  19.661   2.791  0.0727 -0.1538 -0.1097
    1DIPC   C4A23264   5.211  19.811   3.218  0.0666  0.0829  0.2946
    1DIPC   C1B23265   5.112  20.263   2.381 -0.1770 -0.0954 -0.3419
    1DIPC   D2B23266   5.237  20.152   2.763  0.0199  0.1289 -0.3972
    1DIPC   D3B23267   5.625  20.171   3.110 -0.0057  0.0398  0.1791
    1DIPC   C4B23268   5.582  20.284   3.541  0.2078  0.1408 -0.0177
    1DIPC   NC323269  21.748  18.529   1.725  0.0940 -0.2078  0.1383
    1DIPC   PO423270  21.480  18.217   1.886 -0.1373 -0.0369 -0.2528
    1DIPC   GL123271  21.341  18.531   2.117 -0.0717  0.1051 -0.0950
    1DIPC   GL223272  21.410  18.522   2.517 -0.4333 -0.1469  0.1526
    1DIPC   C1A23273  21.057  18.922   2.016  0.0671  0.2149 -0.1166
    1DIPC   D2A23274  20.849  19.179   2.145  0.1616  0.0532  0.3703
    1DIPC   D3A23275  20.640  18.875   2.335 -0.4299 -0.3505 -0.1493
    1DIPC   C4A23276  20.889  18.531   2.429  0.1332 -0.1728  0.0111
    1DIPC   C1B23277  21.812  18.667   2.535 -0.2251 -0.1433  0.3836
    1DIPC   D2B23278  22.234  18.711   2.606  0.2961  0.0334 -0.0650
    1DIPC   D3B23279  21.933  18.869   2.979 -0.2816  0.0736 -0.4380
    1DIPC   C4B23280  21.895  18.751   3.362  0.0437  0.1600  0.1101
    1DIPC   NC323281  22.990   3.827   3.381  0.0335  0.0268 -0.1245
    1DIPC   PO423282  23.342   4.192   3.363 -0.0493  0.0993 -0.0796
    1DIPC   GL123283  23.449   4.573   3.633 -0.0300  0.2887  0.0544
    1DIPC   GL223284  23.683   4.567   3.652 -0.3439 -0.0239  0.0168
    1DIPC   C1A23285  23.276   4.585   4.045 -0.0339 -0.2628 -0.0251
    1DIPC   D2A23286  23.208   4.378   4.409 -0.2364 -0.0925  0.0269
    1DIPC   D3A23287  23.334   4.353   4.835  0.3218  0.0128  0.1428
    1DIPC   C4A23288  23.268   4.657   5.164 -0.0671 -0.1462 -0.0738
    1DIPC   C1B23289  23.597   5.014   3.964  0.2239  0.1356  0.2460
    1DIPC   D2B23290  23.672   5.299   4.190  0.1564 -0.2376  0.0304
    1DIPC   D3B23291  24.034   5.012   4.199 -0.0048  0.0086  0.1536
    1DIPC   C4B23292  24.144   4.722   4.571 -0.0185  0.2400  0.0508
    1DIPC   NC323293  21.758   1.725   3.353  0.0762 -0.0995  0.2841
    1DIPC   PO423294  21.417   1.703   3.302 -0.2017  0.1696 -0.0634
    1DIPC   GL123295  21.271   1.839   3.676 -0.0366 -0.0934  0.0496
    1DIPC   GL223296  21.516   1.851   3.816 -0.3005  0.3497  0.0681
    1DIPC   C1A23297  21.188   1.587   4.072  0.2390 -0.2711  0.3489
    1DIPC   D2A23298  20.911   1.401   4.333 -0.0182  0.2901 -0.1063
    1DIPC   D3A23299  20.987   1.345   4.750 -0.0975  0.0586  0.2334
    1DIPC   C4A23300  20.838   1.677   4.895  0.5378 -0.1691 -0.0551
    1DIPC   C1B23301  21.627   2.267   4.084 -0.1088  0.1863 -0.3250
    1DIPC   D2B23302  21.657   2.565   4.483 -0.1269 -0.3551  0.1038
    1DIPC   D3B23303  21.829   2.433   4.895  0.0513 -0.1188 -0.0880
    1DIPC   C4B23304  22.007   2.579   5.238  0.3440  0.2422 -0.1815
    1DIPC   NC323305  15.599   8.416   2.365  0.1512 -0.1539 -0.0751
    1DIPC   PO423306  16.060   8.251   2.415  0.4134 -0.0842  0.0478
    1DIPC   GL123307  16.245   7.961   2.729 -0.4841  0.0655 -0.1250
    1DIPC   GL223308  16.408   7.932   2.910 -0.0458 -0.0629  0.0723
    1DIPC   C1A23309  16.218   7.485   2.874 -0.0643 -0.0648  0.0053
    1DIPC   D2A23310  16.127   7.041   3.093  0.1431 -0.0682  0.0968
    1DIPC   D3A23311  16.089   6.780   3.430  0.2367  0.2616 -0.3203
    1DIPC   C4A23312  15.729   6.674   3.647 -0.0539  0.1327  0.1823
    1DIPC   C1B23313  16.785   7.744   3.014  0.0938 -0.2344 -0.1157
    1DIPC   D2B23314  17.267   7.866   3.036  0.3910 -0.0677  0.0144
    1DIPC   D3B23315  17.069   8.089   3.419 -0.1367  0.3778 -0.0490
    1DIPC   C4B23316  17.413   8.282   3.724 -0.1694  0.3122  0.0172
    1DIPC   NC323317  10.626  22.431   2.576 -0.3759 -0.3989 -0.0721
    1DIPC   PO423318  10.264  22.661   2.413  0.0347  0.0813  0.1616
    1DIPC   GL123319  10.006  22.817   2.642 -0.0871 -0.1076  0.2741
    1DIPC   GL223320   9.973  23.110   2.786  0.0256 -0.3879  0.0221
    1DIPC   C1A23321   9.764  22.545   3.005  0.1416 -0.1185 -0.0076
    1DIPC   D2A23322   9.845  22.257   3.336  0.0365 -0.2244  0.4066
    1DIPC   D3A23323  10.265  22.276   3.511  0.0008 -0.1105  0.1273
    1DIPC   C4A23324  10.134  22.415   3.943 -0.1355  0.1744  0.2252
    1DIPC   C1B23325   9.827  23.020   3.221  0.0504 -0.0331  0.1366
    1DIPC   D2B23326   9.660  22.754   3.483 -0.0245  0.0476 -0.1210
    1DIPC   D3B23327   9.864  22.819   3.861  0.0489  0.0946  0.2506
    1DIPC   C4B23328   9.773  22.665   4.275  0.0857 -0.1443 -0.3546
    1DIPC   NC323329   2.038   5.816   3.295  0.0317  0.1061 -0.2661
    1DIPC   PO423330   1.705   5.474   3.086 -0.4689  0.0314  0.0640
    1DIPC   GL123331   1.606   5.484   3.443  0.2389 -0.0334 -0.1901
    1DIPC   GL223332   1.915   5.433   3.635  0.1629 -0.0274 -0.3984
    1DIPC   C1A23333   1.304   5.656   3.749  0.1066  0.3107  0.2157
    1DIPC   D2A23334   1.168   5.729   4.146  0.1240  0.1109  0.1083
    1DIPC   D3A23335   1.530   5.874   4.206  0.0444  0.1700 -0.0028
    1DIPC   C4A23336   1.679   6.065   4.602 -0.1463 -0.0019 -0.2168
    1DIPC   C1B23337   1.850   5.779   3.870 -0.0624  0.2158 -0.4103
    1DIPC   D2B23338   1.771   6.226   3.909  0.0107 -0.1908  0.2165
    1DIPC   D3B23339   1.764   6.417   4.247  0.0172 -0.0423 -0.1003
    1DIPC   C4B23340   1.747   6.853   4.371  0.0629  0.0178  0.0993
    1DIPC   NC323341   7.622  25.611   2.328  0.2807 -0.1903 -0.2333
    1DIPC   PO423342   8.023  25.639   2.395  0.0460  0.2146  0.0249
    1DIPC   GL123343   8.023  25.648   2.892 -0.1867  0.3458 -0.1390
    1DIPC   GL223344   8.296  25.786   2.971  0.4199  0.4552 -0.0351
    1DIPC   C1A23345   7.907  25.822   3.299 -0.3805 -0.1715 -0.2248
    1DIPC   D2A23346   7.874  25.510   3.631 -0.1103 -0.1058  0.1203
    1DIPC   D3A23347   7.956  25.278   3.201 -0.0362  0.2470 -0.1296
    1DIPC   C4A23348   8.240  25.008   3.120  0.1472  0.1511  0.2926
    1DIPC   C1B23349   8.402  25.508   3.312  0.2113 -0.1541  0.1246
    1DIPC   D2B23350   8.377  25.268   3.780  0.0958  0.0330  0.0562
    1DIPC   D3B23351   7.994  25.149   4.016 -0.2475 -0.0598  0.0211
    1DIPC   C4B23352   7.702  24.815   4.232  0.0702  0.1507  0.1233
    1DIPC   NC323353  10.355  23.147   2.088 -0.2124 -0.0370 -0.2023
    1DIPC   PO423354  10.751  22.881   2.365 -0.1250 -0.2093  0.0676
    1DIPC   GL123355  10.629  22.851   2.812 -0.1751 -0.0183 -0.2080
    1DIPC   GL223356  10.856  22.880   3.049  0.3223  0.3166  0.0976
    1DIPC   C1A23357  10.326  22.745   3.133 -0.1544  0.2564 -0.1198
    1DIPC   D2A23358  10.171  22.756   3.515 -0.0582 -0.1666  0.2584
    1DIPC   D3A23359  10.367  22.958   3.861  0.1750 -0.0183  0.0417
    1DIPC   C4A23360  10.047  23.185   4.189  0.1232 -0.1450 -0.0891
    1DIPC   C1B23361  10.800  22.724   3.480  0.2568  0.0980 -0.0608
    1DIPC   D2B23362  10.692  22.527   3.867  0.1334  0.0930 -0.1244
    1DIPC   D3B23363  10.816  22.870   4.163  0.2393 -0.2870 -0.1466
    1DIPC   C4B23364  10.516  23.191   4.334 -0.2286  0.2403  0.0552
    1DIPC   NC323365  12.864  29.750   3.222  0.2538 -0.2142  0.2035
    1DIPC   PO423366  12.680  30.237   3.371  0.2083 -0.2742 -0.1807
    1DIPC   GL123367  12.912  29.953   3.709  0.0553 -0.1102 -0.5779
    1DIPC   GL223368  13.117  30.170   3.859  0.0747  0.3137  0.1237
    1DIPC   C1A23369  13.104  29.717   4.074 -0.1193 -0.0313 -0.0235
    1DIPC   D2A23370  13.284  29.496   4.476  0.2676 -0.3095  0.2877
    1DIPC   D3A23371  12.959  29.589   4.800 -0.1374  0.0413 -0.0069
    1DIPC   C4A23372  13.118  29.567   5.165 -0.5230  0.2490 -0.1930
    1DIPC   C1B23373  13.210  30.068   4.377  0.0709  0.0513  0.0782
    1DIPC   D2B23374  13.396  29.974   4.800 -0.0479 -0.0403  0.2076
    1DIPC   D3B23375  12.996  30.080   4.930 -0.0233  0.1844 -0.4417
    1DIPC   C4B23376  12.577  30.074   4.727 -0.3600 -0.2346  0.1035
    1DIPC   NC323377  21.903   2.244   3.123 -0.4344  0.1841 -0.3317
    1DIPC   PO423378  21.587   2.184   3.406 -0.0136  0.1054 -0.0005
    1DIPC   GL123379  21.346   2.369   3.703 -0.0516  0.2668  0.1020
    1DIPC   GL223380  20.984   2.299   3.677 -0.2127  0.0926 -0.1229
    1DIPC   C1A23381  21.152   2.172   4.139 -0.0170  0.1974  0.2727
    1DIPC   D2A23382  21.253   2.279   4.574 -0.1547 -0.1678  0.0876
    1DIPC   D3A23383  21.170   2.699   4.504 -0.0944  0.1182 -0.3017
    1DIPC   C4A23384  21.510   2.979   4.713 -0.2422  0.2546  0.0591
    1DIPC   C1B23385  21.040   2.756   3.899 -0.1228  0.2281  0.1688
    1DIPC   D2B23386  21.467   2.842   3.956  0.2618  0.0903 -0.1317
    1DIPC   D3B23387  21.252   3.110   4.215  0.0844 -0.2776 -0.1884
    1DIPC   C4B23388  20.846   3.015   4.239 -0.0174 -0.1188  0.0252
    1DIPC   NC323389  27.945  27.446   2.843 -0.0667  0.1353 -0.1847
    1DIPC   PO423390  28.138  27.162   3.152  0.1031  0.0959 -0.2296
    1DIPC   GL123391  27.945  27.036   3.556 -0.1340 -0.2852  0.1233
    1DIPC   GL223392  28.240  26.915   3.693  0.1218 -0.1562  0.1477
    1DIPC   C1A23393  27.817  27.187   3.843  0.3365  0.0995  0.0234
    1DIPC   D2A23394  27.829  27.024   4.302  0.0010  0.0443  0.0674
    1DIPC   D3A23395  27.582  26.732   4.681  0.1171  0.0806  0.1605
    1DIPC   C4A23396  27.358  26.446   4.487 -0.0231  0.4604  0.2588
    1DIPC   C1B23397  28.080  26.707   4.029 -0.0594  0.0536 -0.0569
    1DIPC   D2B23398  27.817  26.409   4.269  0.2359  0.1428  0.2828
    1DIPC   D3B23399  28.085  26.410   4.539  0.1170  0.1264  0.0558
    1DIPC   C4B23400  28.303  26.111   4.795  0.2125 -0.1718 -0.1226
    1DIPC   NC323401   8.677   6.531   2.708 -0.1352 -0.2572  0.0940
    1DIPC   PO423402   8.562   6.202   2.863 -0.1328 -0.0845 -0.1042
    1DIPC   GL123403   8.607   6.336   3.328 -0.4041 -0.2303 -0.0777
    1DIPC   GL223404   8.404   6.230   3.564  0.2146  0.2435 -0.1760
    1DIPC   C1A23405   8.785   6.621   3.700  0.0190  0.5027 -0.2262
    1DIPC   D2A23406   8.829   7.019   3.820  0.3704  0.0038 -0.0041
    1DIPC   D3A23407   8.787   7.150   4.287  0.0917  0.1020  0.1103
    1DIPC   C4A23408   8.318   7.245   4.533  0.0330 -0.2060 -0.0760
    1DIPC   C1B23409   8.579   6.191   3.930 -0.1018  0.1702  0.2244
    1DIPC   D2B23410   8.655   6.210   4.351 -0.3274  0.1195 -0.0458
    1DIPC   D3B23411   9.097   6.064   4.277  0.1916 -0.3806  0.1971
    1DIPC   C4B23412   9.524   6.068   4.098  0.0843 -0.0912 -0.0553
    1DIPC   NC323413  18.420  23.190   2.217 -0.1068 -0.0868 -0.0805
    1DIPC   PO423414  18.535  23.158   2.624  0.4690  0.0206  0.2130
    1DIPC   GL123415  18.436  22.919   2.981  0.0330  0.0244  0.1497
    1DIPC   GL223416  18.022  22.868   2.900 -0.1865  0.1268 -0.1118
    1DIPC   C1A23417  18.613  22.611   3.307  0.0856  0.0720 -0.0904
    1DIPC   D2A23418  18.795  22.694   3.769 -0.2347  0.3068  0.1864
    1DIPC   D3A23419  18.875  23.049   3.858 -0.0771  0.1499  0.0278
    1DIPC   C4A23420  18.764  22.950   4.285  0.0174 -0.4059 -0.1666
    1DIPC   C1B23421  18.097  22.778   3.288  0.1875 -0.1432  0.2075
    1DIPC   D2B23422  18.334  22.922   3.636  0.1552  0.0289 -0.2530
    1DIPC   D3B23423  18.357  23.027   4.030 -0.2905 -0.1954 -0.1165
    1DIPC   C4B23424  18.401  22.622   4.215  0.0251 -0.2026 -0.1062
    1DIPC   NC323425  16.529  30.045   2.725  0.5761 -0.0855 -0.0270
    1DIPC   PO423426  16.466  29.720   2.916  0.0130  0.2881  0.1214
    1DIPC   GL123427  16.379  29.621   3.363  0.3671  0.0783 -0.3113
    1DIPC   GL223428  16.503  29.920   3.547 -0.0836  0.1640 -0.1622
    1DIPC   C1A23429  16.252  29.625   3.894  0.5701  0.2263 -0.0917
    1DIPC   D2A23430  16.104  29.960   4.194  0.1961  0.2674  0.0921
    1DIPC   D3A23431  15.860  29.908   4.557 -0.2048  0.0465  0.2373
    1DIPC   C4A23432  15.406  30.060   4.496 -0.0231  0.1293 -0.0462
    1DIPC   C1B23433  16.067  30.041   3.634  0.4139  0.0486  0.0490
    1DIPC   D2B23434  15.787   0.040   3.521  0.0934 -0.2079 -0.0486
    1DIPC   D3B23435  15.666   0.305   3.816  0.1992  0.3035 -0.1945
    1DIPC   C4B23436  15.376   0.660   3.845  0.1763  0.1035  0.1016
    1DIPC   NC323437   1.738   0.057   3.498  0.2753 -0.1122 -0.0493
    1DIPC   PO423438   1.998  30.076   3.574  0.0992 -0.1193 -0.1544
    1DIPC   GL123439   1.867  30.198   3.970 -0.0516 -0.0750 -0.0589
    1DIPC   GL223440   1.571  29.981   4.183 -0.2621 -0.2093  0.0584
    1DIPC   C1A23441   2.024  30.287   4.398 -0.1595  0.1691  0.0351
    1DIPC   D2A23442   2.000  30.337   4.865 -0.0099 -0.0726 -0.2068
    1DIPC   D3A23443   1.604   0.213   4.801  0.0640 -0.0290  0.0237
    1DIPC   C4A23444   1.460   0.555   5.056  0.0316  0.0200 -0.0650
    1DIPC   C1B23445   1.587  30.049   4.654 -0.2645 -0.1697  0.0811
    1DIPC   D2B23446   1.577  30.029   5.058 -0.3139 -0.1078  0.0022
    1DIPC   D3B23447   1.851  30.084   5.498  0.2463 -0.1372  0.1430
    1DIPC   C4B23448   2.182   0.049   5.538 -0.1944  0.3106 -0.0899
    1DIPC   NC323449  10.096  10.397   2.756  0.0446  0.0917  0.0794
    1DIPC   PO423450  10.147  10.761   2.942 -0.0324  0.2511  0.0024
    1DIPC   GL123451   9.871  10.755   3.283  0.0735  0.2627  0.1948
    1DIPC   GL223452   9.814  10.438   3.464 -0.0942 -0.3967 -0.3227
    1DIPC   C1A23453   9.922  10.937   3.718 -0.1111 -0.0475 -0.2102
    1DIPC   D2A23454   9.891  11.084   4.158 -0.0193  0.2955 -0.1709
    1DIPC   D3A23455  10.151  11.199   4.462 -0.2633  0.0010 -0.2113
    1DIPC   C4A23456   9.980  11.239   4.829 -0.3334  0.3173  0.0523
    1DIPC   C1B23457   9.787  10.136   3.763  0.0236 -0.0984 -0.3037
    1DIPC   D2B23458   9.640   9.747   3.873 -0.0387  0.0208 -0.1865
    1DIPC   D3B23459   9.703   9.604   4.254  0.1767 -0.2373 -0.0107
    1DIPC   C4B23460  10.122   9.698   4.538  0.1640  0.2315 -0.2061
    1DIPC   NC323461   2.253   0.848   2.823 -0.1528 -0.0494 -0.0851
    1DIPC   PO423462   2.268   1.020   3.279 -0.3658 -0.0513 -0.2951
    1DIPC   GL123463   2.279   1.172   3.645 -0.0734 -0.0515  0.0833
    1DIPC   GL223464   2.500   1.380   3.731  0.0855 -0.0762 -0.2716
    1DIPC   C1A23465   2.191   0.959   4.037  0.3725  0.0533  0.0308
    1DIPC   D2A23466   2.040   1.036   4.473  0.1273 -0.1520 -0.0083
    1DIPC   D3A23467   2.056   1.372   4.725  0.1522 -0.1287 -0.1217
    1DIPC   C4A23468   2.533   1.565   4.751 -0.0500  0.0938 -0.0229
    1DIPC   C1B23469   2.738   1.078   4.004  0.1724  0.0000  0.0819
    1DIPC   D2B23470   3.020   0.743   4.154 -0.3194  0.0753 -0.0342
    1DIPC   D3B23471   2.933   0.295   4.437  0.0589 -0.1846 -0.2365
    1DIPC   C4B23472   3.231   0.155   4.725  0.2003  0.1880 -0.0139
    1DIPC   NC323473  26.320   8.475   2.409 -0.2537 -0.0694 -0.1536
    1DIPC   PO423474  26.675   8.777   2.529 -0.2583  0.1746 -0.3592
    1DIPC   GL123475  26.630   8.906   2.898  0.0001 -0.1349  0.1342
    1DIPC   GL223476  26.612   9.247   2.977 -0.0033 -0.0882  0.2585
    1DIPC   C1A23477  26.442   8.841   3.284  0.0412  0.1157  0.2543
    1DIPC   D2A23478  26.514   8.836   3.747  0.0223 -0.0476 -0.0104
    1DIPC   D3A23479  26.555   9.236   3.850 -0.0362  0.3535  0.3045
    1DIPC   C4A23480  26.646   9.570   4.053 -0.0744 -0.3482 -0.0127
    1DIPC   C1B23481  26.346   9.290   3.370 -0.1369 -0.1435 -0.2908
    1DIPC   D2B23482  26.363   9.679   3.613  0.1474  0.0390  0.1449
    1DIPC   D3B23483  26.020   9.766   3.966  0.0685  0.1919  0.3680
    1DIPC   C4B23484  25.590   9.534   4.115  0.1902 -0.0889  0.1060
    1DIPC   NC323485   5.900  19.258   1.362  0.0715 -0.0332 -0.1630
    1DIPC   PO423486   5.469  19.285   1.338  0.0257  0.0699 -0.3047
    1DIPC   GL123487   5.534  19.170   1.702 -0.4626 -0.1183  0.0044
    1DIPC   GL223488   5.807  19.315   1.849 -0.3845  0.1266 -0.1174
    1DIPC   C1A23489   5.328  19.372   2.105  0.3961 -0.0666 -0.1509
    1DIPC   D2A23490   5.164  19.219   2.532  0.1203  0.2497  0.1505
    1DIPC   D3A23491   5.190  18.966   2.843  0.3055  0.0246 -0.1430
    1DIPC   C4A23492   5.361  19.173   3.198 -0.0536  0.1140  0.1663
    1DIPC   C1B23493   5.788  19.268   2.255 -0.2088 -0.0325  0.4249
    1DIPC   D2B23494   5.638  19.182   2.660 -0.1462 -0.5117 -0.0691
    1DIPC   D3B23495   5.549  18.816   2.475 -0.0566 -0.0465  0.3320
    1DIPC   C4B23496   5.745  18.528   2.624  0.0056 -0.3966  0.1573
    1DIPC   NC323497  24.029  13.943   1.949  0.2872  0.0147 -0.0406
    1DIPC   PO423498  24.277  14.105   2.203 -0.0358 -0.1581 -0.3128
    1DIPC   GL123499  24.378  14.033   2.532  0.1951  0.0305  0.4533
    1DIPC   GL223500  24.172  13.998   2.853  0.2638  0.3062 -0.2312
    1DIPC   C1A23501  24.692  14.131   2.846  0.1759 -0.2334 -0.0022
    1DIPC   D2A23502  24.786  14.098   3.339  0.1542 -0.0940 -0.1968
    1DIPC   D3A23503  25.148  14.112   3.069 -0.2521  0.0493  0.0201
    1DIPC   C4A23504  25.120  13.748   2.780 -0.0280 -0.1407  0.0212
    1DIPC   C1B23505  23.862  13.872   3.006 -0.0591 -0.1294  0.1314
    1DIPC   D2B23506  23.512  14.026   3.261  0.1726 -0.1464 -0.0321
    1DIPC   D3B23507  23.544  14.157   3.654 -0.0985 -0.0914 -0.1316
    1DIPC   C4B23508  23.957  14.142   3.877 -0.2713 -0.1929  0.4369
    1DIPC   NC323509   9.034   2.388   3.135 -0.1798  0.0759  0.0643
    1DIPC   PO423510   8.936   2.811   3.147  0.1176  0.0383  0.0213
    1DIPC   GL123511   8.934   2.896   3.582 -0.0757  0.1743 -0.0944
    1DIPC   GL223512   8.796   3.109   3.732 -0.2556  0.1666  0.0663
    1DIPC   C1A23513   8.551   2.746   3.896  0.2082  0.1475  0.1142
    1DIPC   D2A23514   8.361   2.400   4.119 -0.0930  0.1138  0.1508
    1DIPC   D3A23515   8.462   2.073   4.451  0.0377 -0.1560 -0.0002
    1DIPC   C4A23516   8.325   1.915   4.832 -0.3752 -0.2656  0.2133
    1DIPC   C1B23517   8.731   3.110   4.233  0.0752  0.1737  0.1371
    1DIPC   D2B23518   8.622   3.129   4.649 -0.1763  0.0180  0.2313
    1DIPC   D3B23519   8.582   3.329   4.989  0.1099 -0.2322 -0.2261
    1DIPC   C4B23520   8.487   2.978   5.271 -0.1012 -0.1741  0.0678
    1DIPC   NC323521  25.575  12.316   2.562  0.0325  0.0260 -0.2479
    1DIPC   PO423522  25.416  11.964   2.420 -0.0622  0.1260  0.1453
    1DIPC   GL123523  25.277  12.025   2.889  0.1160  0.3515  0.0858
    1DIPC   GL223524  25.545  11.926   2.906 -0.0527 -0.3413 -0.0569
    1DIPC   C1A23525  25.270  12.174   3.358  0.0832 -0.1205  0.1095
    1DIPC   D2A23526  25.175  12.235   3.777  0.2136  0.0849 -0.1254
    1DIPC   D3A23527  25.484  11.923   3.774  0.1043 -0.0091 -0.1428
    1DIPC   C4A23528  25.522  11.509   3.902 -0.1686 -0.3077 -0.2405
    1DIPC   C1B23529  25.329  11.677   3.351 -0.2410  0.0658  0.0378
    1DIPC   D2B23530  25.026  11.738   3.515 -0.0727 -0.2254  0.0940
    1DIPC   D3B23531  24.961  11.775   4.005 -0.1620 -0.2162 -0.0184
    1DIPC   C4B23532  25.194  11.489   4.240 -0.2675  0.0837  0.0099
    1DIPC   NC323533  21.579  26.155   3.183 -0.0346 -0.0395 -0.0411
    1DIPC   PO423534  21.766  26.508   3.229  0.0873 -0.1112 -0.0409
    1DIPC   GL123535  21.930  26.262   3.569  0.3628 -0.2079 -0.1082
    1DIPC   GL223536  22.134  26.450   3.734 -0.1337  0.1094  0.2953
    1DIPC   C1A23537  21.814  26.226   3.996 -0.3052  0.3120  0.2374
    1DIPC   D2A23538  22.034  26.401   4.479  0.1525  0.0284 -0.0495
    1DIPC   D3A23539  21.633  26.239   4.570  0.0297 -0.0274  0.1184
    1DIPC   C4A23540  21.355  26.419   4.791 -0.1646  0.1234 -0.0638
    1DIPC   C1B23541  22.308  26.623   4.077  0.2593 -0.1328  0.0394
    1DIPC   D2B23542  22.521  26.565   4.538  0.2221  0.3792 -0.0667
    1DIPC   D3B23543  22.457  26.208   4.745  0.1903 -0.1032 -0.0046
    1DIPC   C4B23544  22.126  26.031   4.788 -0.0961 -0.3778  0.1448
    1DIPC   NC323545  19.498  10.525   2.525  0.0584  0.0681  0.0673
    1DIPC   PO423546  19.630  10.819   2.734 -0.2660  0.1925 -0.1188
    1DIPC   GL123547  19.934  10.863   3.077  0.2028 -0.2329  0.0728
    1DIPC   GL223548  20.084  11.195   2.930  0.0446 -0.0839 -0.3114
    1DIPC   C1A23549  20.057  10.644   3.359  0.0095 -0.2605 -0.1621
    1DIPC   D2A23550  20.237  10.478   3.692 -0.0349  0.3055 -0.0940
    1DIPC   D3A23551  20.104  10.304   4.165 -0.1343 -0.2763  0.1254
    1DIPC   C4A23552  19.691  10.113   4.199 -0.1067 -0.0835  0.1749
    1DIPC   C1B23553  20.093  11.195   3.425 -0.3765 -0.1361 -0.3205
    1DIPC   D2B23554  20.039  10.903   3.863 -0.1382 -0.3493  0.1255
    1DIPC   D3B23555  20.394  10.759   4.133  0.0758  0.2461  0.0310
    1DIPC   C4B23556  20.656  10.363   4.059 -0.0810  0.3195  0.2838
    1DIPC   NC323557  13.668  29.454   3.192  0.2380  0.1441 -0.1279
    1DIPC   PO423558  13.314  29.439   2.943  0.3433 -0.1828  0.3339
    1DIPC   GL123559  13.226  29.376   3.426  0.2689 -0.0544 -0.4016
    1DIPC   GL223560  13.209  29.125   3.533  0.1212 -0.1333  0.1417
    1DIPC   C1A23561  13.428  29.454   3.880  0.0993  0.1426 -0.0618
    1DIPC   D2A23562  13.791  29.208   3.920 -0.3589 -0.1596 -0.0940
    1DIPC   D3A23563  14.195  29.454   4.074 -0.4358 -0.0288  0.1180
    1DIPC   C4A23564  14.230  29.860   3.814  0.0898  0.0946 -0.0690
    1DIPC   C1B23565  13.416  28.873   3.804 -0.1807 -0.1458 -0.4745
    1DIPC   D2B23566  13.565  28.662   4.105  0.1906  0.0075 -0.0237
    1DIPC   D3B23567  13.221  28.729   4.493  0.1041 -0.0890 -0.0664
    1DIPC   C4B23568  13.327  28.853   4.813 -0.0278 -0.2298 -0.1606
    1DIPC   NC323569  15.904   3.682   2.822  0.3263 -0.3010  0.4011
    1DIPC   PO423570  16.357   3.615   2.828  0.0643  0.0945  0.1424
    1DIPC   GL123571  16.466   3.611   3.255 -0.0899 -0.1953  0.0473
    1DIPC   GL223572  16.561   3.378   3.490  0.0539  0.2992 -0.0308
    1DIPC   C1A23573  16.844   3.788   3.575  0.3798 -0.1474  0.0970
    1DIPC   D2A23574  16.886   3.985   3.944 -0.2212 -0.3813  0.1625
    1DIPC   D3A23575  17.093   4.390   4.198 -0.0573 -0.1294  0.0795
    1DIPC   C4A23576  16.785   4.549   4.336 -0.1048 -0.0612 -0.2540
    1DIPC   C1B23577  16.341   3.667   3.788  0.2217 -0.1414 -0.0855
    1DIPC   D2B23578  16.012   3.571   4.090  0.0125 -0.0228 -0.1852
    1DIPC   D3B23579  16.276   3.771   4.266  0.1071  0.1584 -0.0288
    1DIPC   C4B23580  16.320   4.238   4.071  0.1732 -0.2558 -0.0828
    1DIPC   NC323581  28.307  30.322   3.965 -0.1477  0.0005 -0.3619
    1DIPC   PO423582  28.606   0.207   3.623 -0.0371  0.0957 -0.1391
    1DIPC   GL123583  28.785   0.161   4.006  0.0993 -0.2563  0.1110
    1DIPC   GL223584  29.017   0.514   4.110  0.0207 -0.0615 -0.0972
    1DIPC   C1A23585  29.053   0.110   4.424 -0.0095  0.3744 -0.4329
    1DIPC   D2A23586  28.882  30.104   4.698  0.3358 -0.4977  0.0469
    1DIPC   D3A23587  28.856  29.996   5.101 -0.0282 -0.0403 -0.2987
    1DIPC   C4A23588  28.857  29.678   5.314 -0.0900  0.0995  0.1856
    1DIPC   C1B23589  28.858   0.527   4.567  0.0044 -0.2398 -0.2523
    1DIPC   D2B23590  28.373   0.511   4.607  0.2011 -0.1290  0.0008
    1DIPC   D3B23591  28.391   0.835   4.749 -0.0183 -0.2189 -0.1032
    1DIPC   C4B23592  28.477   1.180   4.493  0.0819  0.2841 -0.1878
    1DIPC   NC323593  15.759  12.677   3.616  0.1280  0.0425  0.0928
    1DIPC   PO423594  16.178  12.634   3.649  0.1500  0.0234  0.1014
    1DIPC   GL123595  16.537  12.810   3.738  0.4861  0.0464  0.1172
    1DIPC   GL223596  16.673  12.535   3.596  0.0836  0.0458  0.0264
    1DIPC   C1A23597  16.714  12.866   4.102  0.3027 -0.0988 -0.1444
    1DIPC   D2A23598  16.920  12.783   4.624 -0.1169 -0.0431 -0.1531
    1DIPC   D3A23599  17.353  12.767   4.709 -0.0519  0.2721 -0.2842
    1DIPC   C4A23600  17.704  13.049   4.698  0.1577 -0.0716  0.1566
    1DIPC   C1B23601  16.891  12.437   3.956  0.2878  0.1884  0.1587
    1DIPC   D2B23602  16.977  12.291   4.326  0.2371  0.3656 -0.4424
    1DIPC   D3B23603  17.182  12.708   4.252  0.3131 -0.1103 -0.2137
    1DIPC   C4B23604  17.492  12.736   4.146 -0.1532 -0.1044  0.0946
    1DIPC   NC323605  25.085  10.117   2.058  0.0144  0.0685 -0.1055
    1DIPC   PO423606  24.725   9.901   1.975  0.2075  0.2829  0.2251
    1DIPC   GL123607  24.690  10.032   2.473 -0.2453  0.0195 -0.1110
    1DIPC   GL223608  24.352  10.139   2.544 -0.2192 -0.0533 -0.0788
    1DIPC   C1A23609  24.739   9.984   2.847  0.2133 -0.1351  0.0930
    1DIPC   D2A23610  25.002  10.150   3.308  0.2493  0.2667 -0.0686
    1DIPC   D3A23611  24.673  10.053   3.704 -0.1084  0.1944 -0.2463
    1DIPC   C4A23612  24.817   9.861   4.112  0.3276 -0.0450 -0.2039
    1DIPC   C1B23613  24.345  10.359   3.049 -0.1553 -0.0751  0.0093
    1DIPC   D2B23614  24.130  10.577   3.380  0.1661  0.0558  0.1875
    1DIPC   D3B23615  24.354  10.926   3.193  0.0432  0.1129  0.0348
    1DIPC   C4B23616  24.724  10.707   2.953  0.1388  0.1123 -0.2308
    1DIPC   NC323617  25.798   6.433   3.454 -0.1405 -0.2488 -0.1070
    1DIPC   PO423618  25.786   6.621   3.061 -0.1951  0.0644 -0.0955
    1DIPC   GL123619  25.803   7.020   3.201 -0.0410 -0.3106  0.0767
    1DIPC   GL223620  26.026   6.904   3.481 -0.0753 -0.0906  0.2732
    1DIPC   C1A23621  25.622   7.254   3.511 -0.3414 -0.0125 -0.1064
    1DIPC   D2A23622  25.655   7.684   3.501  0.3790 -0.2069  0.1872
    1DIPC   D3A23623  25.258   7.532   3.740 -0.1300 -0.0891 -0.1580
    1DIPC   C4A23624  25.282   7.771   4.100 -0.1725  0.0408 -0.0095
    1DIPC   C1B23625  26.110   7.174   3.647 -0.0985 -0.1052 -0.2029
    1DIPC   D2B23626  25.979   7.247   4.093 -0.0053  0.0655  0.2677
    1DIPC   D3B23627  25.865   6.934   4.454 -0.1179  0.1500  0.3415
    1DIPC   C4B23628  26.069   7.137   4.849  0.0512  0.1662 -0.0330
    1DIPC   NC323629  10.453  30.029   2.918 -0.0984  0.2934 -0.4451
    1DIPC   PO423630  10.249  29.732   3.120  0.2075  0.0591 -0.0438
    1DIPC   GL123631   9.997  29.794   3.563 -0.0449  0.0069  0.1845
    1DIPC   GL223632   9.757  30.052   3.668 -0.1263 -0.4593  0.3703
    1DIPC   C1A23633   9.873  29.828   4.122  0.2582 -0.0570  0.1817
    1DIPC   D2A23634   9.645  29.561   4.468  0.0719 -0.1834  0.3176
    1DIPC   D3A23635   9.543  29.074   4.397  0.1670 -0.0865 -0.0553
    1DIPC   C4A23636   9.493  28.659   4.717 -0.1171 -0.1448 -0.2019
    1DIPC   C1B23637   9.481  29.645   3.815  0.0050 -0.0125  0.0615
    1DIPC   D2B23638   9.255  29.663   4.136 -0.1003  0.0870  0.2327
    1DIPC   D3B23639   9.202  29.432   4.554 -0.3190  0.1449  0.0395
    1DIPC   C4B23640   9.324  29.633   4.902  0.1241 -0.1518 -0.2165
    1DIPC   NC323641  21.936  24.996   2.552 -0.2110 -0.0328 -0.0062
    1DIPC   PO423642  22.336  25.015   2.806  0.2883  0.3019 -0.0193
    1DIPC   GL123643  22.474  24.841   3.203  0.0924  0.0404  0.0152
    1DIPC   GL223644  22.721  24.834   3.288 -0.0556  0.0164 -0.1708
    1DIPC   C1A23645  22.283  24.732   3.603 -0.0609  0.0839  0.1220
    1DIPC   D2A23646  22.207  24.339   3.738 -0.0265  0.0266 -0.0870
    1DIPC   D3A23647  22.213  24.506   4.142 -0.0967 -0.3414 -0.0471
    1DIPC   C4A23648  22.043  24.836   4.379 -0.2628 -0.2175  0.5029
    1DIPC   C1B23649  22.853  24.698   3.787  0.0578  0.0575  0.1050
    1DIPC   D2B23650  22.878  24.558   4.139 -0.0312 -0.1073  0.1342
    1DIPC   D3B23651  23.374  24.680   4.064 -0.3394 -0.1557  0.1754
    1DIPC   C4B23652  23.599  24.653   3.611 -0.1325  0.1332 -0.1468
    1DIPC   NC323653   4.618  26.959   3.009 -0.0421 -0.1896 -0.4546
    1DIPC   PO423654   4.942  26.735   3.057  0.1589  0.1359 -0.0108
    1DIPC   GL123655   5.116  26.579   3.402  0.2942 -0.0090 -0.0054
    1DIPC   GL223656   5.296  26.296   3.419  0.0824  0.2251  0.0894
    1DIPC   C1A23657   5.270  26.578   3.850 -0.2781  0.0387  0.2520
    1DIPC   D2A23658   5.589  26.456   4.186 -0.0262  0.1447 -0.0491
    1DIPC   D3A23659   5.319  26.033   3.898  0.1606  0.3487  0.0943
    1DIPC   C4A23660   4.870  26.130   3.811  0.1024 -0.0718 -0.1647
    1DIPC   C1B23661   5.722  26.308   3.750  0.0557  0.0543 -0.2643
    1DIPC   D2B23662   6.071  26.128   3.919  0.1851  0.1132 -0.1555
    1DIPC   D3B23663   6.186  25.824   4.210 -0.2046 -0.1014  0.2417
    1DIPC   C4B23664   6.562  25.530   4.213  0.0171 -0.1361 -0.2938
    1DIPC   NC323665  11.486   7.222   2.685  0.1040 -0.1866 -0.0941
    1DIPC   PO423666  11.853   6.975   2.580  0.0678  0.0826 -0.0611
    1DIPC   GL123667  11.866   6.559   2.902  0.2716 -0.1800  0.0615
    1DIPC   GL223668  11.971   6.783   3.120  0.0888  0.0819 -0.1765
    1DIPC   C1A23669  12.078   6.289   3.109 -0.1265  0.0865  0.3121
    1DIPC   D2A23670  12.294   5.915   3.273 -0.1505  0.0638  0.2429
    1DIPC   D3A23671  12.167   5.595   3.064 -0.4541 -0.1085  0.0139
    1DIPC   C4A23672  12.171   5.137   2.899  0.0978  0.1091  0.0216
    1DIPC   C1B23673  12.034   6.686   3.507  0.0192 -0.2763  0.1712
    1DIPC   D2B23674  11.882   6.748   3.880 -0.0528 -0.2771 -0.0342
    1DIPC   D3B23675  11.816   6.970   4.276 -0.0240 -0.2671 -0.0325
    1DIPC   C4B23676  11.706   6.646   4.501  0.4340 -0.0194 -0.0635
    1DIPC   NC323677  13.782  17.695   2.546  0.0151 -0.0805  0.1314
    1DIPC   PO423678  13.788  17.282   2.819  0.1178  0.1519 -0.2317
    1DIPC   GL123679  13.757  17.514   3.108  0.0841  0.0275  0.0362
    1DIPC   GL223680  13.959  17.748   3.104  0.2304 -0.1104  0.3231
    1DIPC   C1A23681  13.353  17.698   3.402  0.0192 -0.4065  0.0497
    1DIPC   D2A23682  13.046  17.659   3.666 -0.2444 -0.0885  0.0712
    1DIPC   D3A23683  12.630  17.508   3.719  0.3872  0.2018  0.1964
    1DIPC   C4A23684  12.674  17.118   3.942 -0.0351 -0.0474 -0.0040
    1DIPC   C1B23685  14.070  17.911   3.491 -0.0357  0.1673 -0.0007
    1DIPC   D2B23686  14.040  18.354   3.674  0.1667 -0.1916  0.0864
    1DIPC   D3B23687  13.783  18.593   3.836 -0.4271 -0.0296  0.2111
    1DIPC   C4B23688  13.309  18.614   3.698 -0.1196 -0.0940 -0.3568
    1DIPC   NC323689  21.268  24.447   2.678  0.0818 -0.3238  0.0738
    1DIPC   PO423690  21.494  24.814   2.784 -0.2101  0.2231 -0.1213
    1DIPC   GL123691  21.108  24.792   3.050  0.0660 -0.1810 -0.0754
    1DIPC   GL223692  20.979  24.427   3.090 -0.2107 -0.0561 -0.2679
    1DIPC   C1A23693  21.083  24.838   3.481 -0.0810 -0.1214  0.0048
    1DIPC   D2A23694  21.127  24.644   3.870 -0.1749  0.0905 -0.1063
    1DIPC   D3A23695  21.122  24.270   4.249 -0.2524 -0.1254  0.2379
    1DIPC   C4A23696  20.728  24.202   4.522 -0.2101  0.0300  0.0066
    1DIPC   C1B23697  21.039  24.284   3.520 -0.1170  0.2901  0.3346
    1DIPC   D2B23698  21.242  23.962   3.851  0.0767 -0.1890  0.3824
    1DIPC   D3B23699  21.518  24.347   4.006 -0.3572  0.0006  0.2636
    1DIPC   C4B23700  21.809  24.342   4.382 -0.2758  0.1743 -0.4153
    1DIPC   NC323701  10.232   4.509   2.701 -0.1564 -0.0106  0.0764
    1DIPC   PO423702  10.297   4.467   3.165  0.2673 -0.2366  0.2020
    1DIPC   GL123703  10.290   4.924   3.339 -0.1431 -0.0043  0.1949
    1DIPC   GL223704  10.561   5.240   3.463  0.1277  0.1729 -0.1407
    1DIPC   C1A23705  10.176   5.092   3.790  0.0456 -0.2092 -0.0885
    1DIPC   D2A23706   9.993   4.897   4.140  0.1275  0.3037 -0.0299
    1DIPC   D3A23707  10.133   5.231   4.389 -0.2215 -0.0832  0.1035
    1DIPC   C4A23708   9.969   5.623   4.550 -0.1138 -0.1278 -0.0839
    1DIPC   C1B23709  10.724   5.562   3.767  0.0967 -0.1795 -0.1430
    1DIPC   D2B23710  10.949   5.639   4.067  0.1076 -0.0848  0.1956
    1DIPC   D3B23711  11.133   5.346   4.236 -0.0150  0.1581 -0.4640
    1DIPC   C4B23712  11.002   5.117   4.630  0.2080 -0.2196  0.0001
    1DIPC   NC323713  19.074  28.458   2.645  0.0207 -0.0900 -0.0308
    1DIPC   PO423714  19.395  28.497   3.104  0.0075  0.2824  0.1644
    1DIPC   GL123715  19.296  28.242   3.560  0.0512 -0.2171 -0.0388
    1DIPC   GL223716  19.501  28.366   3.743  0.3402 -0.0892 -0.1418
    1DIPC   C1A23717  19.075  28.006   3.762 -0.2654  0.0254 -0.1134
    1DIPC   D2A23718  19.047  27.638   4.108  0.1369 -0.0401  0.3668
    1DIPC   D3A23719  19.020  28.038   4.306  0.0421 -0.1234 -0.1228
    1DIPC   C4A23720  19.233  28.225   4.688 -0.0333  0.7146  0.0159
    1DIPC   C1B23721  19.147  28.421   4.049  0.1184  0.0755  0.0720
    1DIPC   D2B23722  18.745  28.620   4.268 -0.0220  0.0494  0.0954
    1DIPC   D3B23723  18.787  28.490   4.731 -0.2320  0.1140  0.2834
    1DIPC   C4B23724  18.442  28.539   4.977 -0.0114 -0.1811 -0.0435
    1DIPC   NC323725   5.082   4.253   3.458 -0.0619  0.1831 -0.2099
    1DIPC   PO423726   4.675   4.208   3.469 -0.0529 -0.2243 -0.0355
    1DIPC   GL123727   4.910   3.916   3.783  0.3788 -0.0233 -0.0690
    1DIPC   GL223728   4.700   3.823   3.948  0.1844  0.1070 -0.0520
    1DIPC   C1A23729   5.199   4.035   4.194  0.1592  0.0442  0.0572
    1DIPC   D2A23730   5.520   4.272   4.347 -0.0372 -0.0431 -0.1170
    1DIPC   D3A23731   5.248   4.128   4.706 -0.0660  0.0706  0.3224
    1DIPC   C4A23732   5.197   4.397   4.925  0.0423 -0.1607 -0.4359
    1DIPC   C1B23733   4.888   3.478   4.186 -0.0375  0.3307 -0.1563
    1DIPC   D2B23734   5.076   3.169   4.519  0.1628  0.1541  0.1829
    1DIPC   D3B23735   4.759   2.938   4.764 -0.1861  0.0976  0.0608
    1DIPC   C4B23736   4.940   2.824   5.216  0.2258  0.1665  0.0527
    1DIPC   NC323737  23.231   2.706   2.923  0.0097 -0.0983  0.1442
    1DIPC   PO423738  23.423   2.764   3.351 -0.1662  0.0170 -0.1695
    1DIPC   GL123739  23.384   2.962   3.765 -0.3114  0.0477 -0.0459
    1DIPC   GL223740  23.740   3.164   3.977 -0.2845  0.4406 -0.1581
    1DIPC   C1A23741  23.294   2.808   4.215 -0.0111  0.2383  0.3724
    1DIPC   D2A23742  22.865   2.726   4.414 -0.3716 -0.1147 -0.1065
    1DIPC   D3A23743  22.490   2.554   4.420  0.2250  0.0271  0.1879
    1DIPC   C4A23744  22.358   2.440   4.868  0.0038  0.0128 -0.0654
    1DIPC   C1B23745  23.764   2.953   4.340  0.3359 -0.0599  0.2428
    1DIPC   D2B23746  23.776   2.926   4.773  0.0633  0.4083 -0.1555
    1DIPC   D3B23747  24.235   2.864   4.930  0.0711 -0.0005  0.0908
    1DIPC   C4B23748  24.268   2.463   5.195 -0.0012  0.0071 -0.0819
    1DIPC   NC323749   7.979   7.954   2.837  0.1863  0.0091  0.1007
    1DIPC   PO423750   7.990   8.149   3.248 -0.1872 -0.0416 -0.3511
    1DIPC   GL123751   8.120   7.860   3.496  0.0411  0.0567  0.0381
    1DIPC   GL223752   7.867   7.715   3.635  0.1070  0.0054  0.0483
    1DIPC   C1A23753   8.345   7.565   3.653 -0.0096  0.0185  0.0369
    1DIPC   D2A23754   8.538   7.384   3.933 -0.3235 -0.1890  0.0836
    1DIPC   D3A23755   8.278   7.596   4.152 -0.0967 -0.0265 -0.1336
    1DIPC   C4A23756   8.337   8.015   4.031  0.2995 -0.2359  0.0415
    1DIPC   C1B23757   7.656   7.446   3.993  0.2539  0.0928 -0.0938
    1DIPC   D2B23758   7.841   7.320   4.352  0.0563 -0.0147 -0.0050
    1DIPC   D3B23759   7.620   7.043   4.665  0.0115  0.1811 -0.0303
    1DIPC   C4B23760   7.939   7.086   5.066 -0.3027 -0.2038 -0.3008
    1DIPC   NC323761  19.596  11.725   2.518 -0.1117 -0.0995 -0.1728
    1DIPC   PO423762  19.241  11.966   2.476  0.1612 -0.0219  0.2041
    1DIPC   GL123763  18.917  11.992   2.842  0.0892  0.0367  0.0278
    1DIPC   GL223764  19.013  11.750   3.150 -0.1026 -0.0082  0.1319
    1DIPC   C1A23765  18.620  12.013   3.199  0.0425 -0.1466 -0.2803
    1DIPC   D2A23766  18.311  11.730   3.303  0.0949 -0.2818  0.1181
    1DIPC   D3A23767  18.344  12.015   3.719 -0.1061  0.1117  0.1271
    1DIPC   C4A23768  18.757  12.050   3.829  0.0693  0.3104  0.2313
    1DIPC   C1B23769  19.295  11.927   3.421  0.2832 -0.0135  0.2759
    1DIPC   D2B23770  19.237  12.158   3.596 -0.3188  0.0787  0.1701
    1DIPC   D3B23771  19.247  12.072   3.985  0.0287 -0.1120 -0.2974
    1DIPC   C4B23772  19.352  12.078   4.437 -0.0832  0.2357  0.0914
    1DIPC   NC323773  11.667  28.295   2.797 -0.1472  0.0177 -0.2370
    1DIPC   PO423774  11.832  28.528   3.153  0.1378  0.2442  0.0093
    1DIPC   GL123775  11.942  28.434   3.467 -0.2394  0.1948 -0.1776
    1DIPC   GL223776  12.337  28.541   3.640 -0.3454  0.1029  0.3308
    1DIPC   C1A23777  11.900  28.351   3.919 -0.1695  0.0071  0.1737
    1DIPC   D2A23778  11.790  28.477   4.378  0.0321 -0.0861  0.2098
    1DIPC   D3A23779  11.602  28.151   4.665  0.0934 -0.1160  0.1899
    1DIPC   C4A23780  11.705  27.725   4.625 -0.1265 -0.0945  0.2998
    1DIPC   C1B23781  12.625  28.343   3.694  0.1190  0.0272  0.1039
    1DIPC   D2B23782  12.974  28.065   3.578 -0.0602  0.1712  0.0794
    1DIPC   D3B23783  12.925  27.776   3.842 -0.0387 -0.0626  0.0721
    1DIPC   C4B23784  12.488  27.766   4.004 -0.1857  0.2673  0.1920
    1DIPC   NC323785  14.252   0.215   2.971  0.0354 -0.0504 -0.1284
    1DIPC   PO423786  14.602   0.082   3.032 -0.0695  0.2015  0.0968
    1DIPC   GL123787  14.519   0.353   3.388  0.0926  0.0193  0.1694
    1DIPC   GL223788  14.680   0.663   3.281 -0.4682 -0.1862  0.3224
    1DIPC   C1A23789  14.457   0.470   3.883 -0.0292 -0.0775 -0.0712
    1DIPC   D2A23790  14.516   0.657   4.323 -0.1882  0.2152 -0.0458
    1DIPC   D3A23791  14.809   0.357   4.429 -0.1315 -0.1077  0.1536
    1DIPC   C4A23792  15.227   0.438   4.230 -0.1797  0.0493 -0.0914
    1DIPC   C1B23793  14.706   1.022   3.643  0.2074  0.4772  0.0621
    1DIPC   D2B23794  14.965   1.296   3.781  0.0043  0.0336  0.2131
    1DIPC   D3B23795  15.343   1.613   3.844  0.2248  0.0854  0.0246
    1DIPC   C4B23796  15.226   1.967   4.161  0.0763 -0.2202  0.1368
    1DIPC   NC323797  24.099   8.756   2.453  0.0111  0.4420 -0.1564
    1DIPC   PO423798  24.234   9.214   2.546 -0.2039  0.1247  0.0694
    1DIPC   GL123799  24.285   8.908   2.874  0.0465 -0.0010  0.1976
    1DIPC   GL223800  24.482   9.058   3.069 -0.0828 -0.0009  0.1819
    1DIPC   C1A23801  24.230   8.712   3.310  0.1382 -0.0057 -0.0419
    1DIPC   D2A23802  23.940   8.447   3.655  0.1705  0.0471  0.1969
    1DIPC   D3A23803  23.455   8.443   3.799  0.1228  0.1510 -0.0089
    1DIPC   C4A23804  23.533   8.218   4.188  0.0276  0.0683  0.1760
    1DIPC   C1B23805  24.660   8.969   3.426 -0.1934 -0.1855  0.0867
    1DIPC   D2B23806  24.893   8.683   3.553 -0.3730 -0.3048  0.2320
    1DIPC   D3B23807  24.970   8.459   4.004  0.0822 -0.0449  0.0740
    1DIPC   C4B23808  25.317   8.279   4.244 -0.1895 -0.2778 -0.2947
    1DIPC   NC323809  14.254  16.164   3.017 -0.2242  0.2341  0.2213
    1DIPC   PO423810  14.562  15.811   3.287  0.0434  0.0664  0.2398
    1DIPC   GL123811  14.811  16.031   3.564 -0.0856  0.0523 -0.0410
    1DIPC   GL223812  14.812  16.340   3.555  0.0411  0.2990 -0.0012
    1DIPC   C1A23813  14.949  16.095   3.993 -0.0653  0.1455 -0.3270
    1DIPC   D2A23814  15.169  16.120   4.421  0.1048 -0.1495  0.1899
    1DIPC   D3A23815  15.113  15.882   4.753 -0.3715 -0.1505  0.0999
    1DIPC   C4A23816  14.907  15.506   4.830  0.2751  0.0256  0.1100
    1DIPC   C1B23817  14.868  16.570   3.951 -0.1000  0.0431  0.0877
    1DIPC   D2B23818  14.855  16.575   4.349  0.0539  0.1218  0.1449
    1DIPC   D3B23819  14.987  17.041   4.513 -0.0566  0.1731 -0.1584
    1DIPC   C4B23820  14.727  17.464   4.455  0.1191  0.0201  0.0658
    1DIPC   NC323821  23.108   9.317   2.355 -0.2317  0.0277 -0.0848
    1DIPC   PO423822  23.177   8.798   2.414 -0.1503 -0.1858 -0.1528
    1DIPC   GL123823  23.284   8.969   2.764 -0.1688  0.0808 -0.0658
    1DIPC   GL223824  23.081   9.188   2.804  0.1133 -0.3310 -0.0783
    1DIPC   C1A23825  23.654   8.710   2.976  0.1198  0.2182  0.3353
    1DIPC   D2A23826  23.578   8.481   3.283  0.6103  0.1915 -0.0054
    1DIPC   D3A23827  23.230   8.881   3.370 -0.0892  0.1607  0.0945
    1DIPC   C4A23828  23.098   8.950   3.791  0.0683  0.1589  0.0558
    1DIPC   C1B23829  22.923   9.185   3.186  0.0849 -0.1754 -0.0998
    1DIPC   D2B23830  23.192   9.347   3.519  0.3426  0.0007 -0.1981
    1DIPC   D3B23831  23.398   9.777   3.446  0.1006 -0.0600  0.3813
    1DIPC   C4B23832  23.601   9.773   3.123  0.1130 -0.0772 -0.1483
    1DIPC   NC323833   4.537   5.022   3.331 -0.0719 -0.1579 -0.1796
    1DIPC   PO423834   4.251   5.061   3.637  0.0674 -0.0302 -0.0024
    1DIPC   GL123835   4.121   5.152   4.057 -0.1627  0.1045  0.0106
    1DIPC   GL223836   4.392   5.304   4.099 -0.3480  0.0451 -0.1233
    1DIPC   C1A23837   3.978   4.996   4.484 -0.1802 -0.0819 -0.0471
    1DIPC   D2A23838   3.860   4.800   4.891  0.0063 -0.1888 -0.2287
    1DIPC   D3A23839   4.179   4.506   5.076  0.1615  0.0993 -0.3948
    1DIPC   C4A23840   4.281   4.176   4.973 -0.0841  0.1854 -0.1284
    1DIPC   C1B23841   4.391   5.260   4.488 -0.1366 -0.0810  0.1415
    1DIPC   D2B23842   4.643   5.455   4.847  0.2729 -0.0433 -0.2322
    1DIPC   D3B23843   4.645   5.606   5.381 -0.0618 -0.2003  0.1140
    1DIPC   C4B23844   5.209   5.691   5.474  0.2273  0.3267 -0.1767
    1DIPC   NC323845   9.859  27.830   2.456  0.0274  0.2959  0.2792
    1DIPC   PO423846   9.713  27.789   2.908  0.2133  0.0497  0.1723
    1DIPC   GL123847   9.497  27.509   3.343  0.1634  0.4071 -0.0895
    1DIPC   GL223848   9.266  27.606   3.466  0.0709  0.0083 -0.4160
    1DIPC   C1A23849   9.735  27.313   3.685  0.0189 -0.1186 -0.2122
    1DIPC   D2A23850   9.693  27.257   4.058 -0.1448 -0.0070  0.0247
    1DIPC   D3A23851   9.723  26.969   4.364 -0.1191 -0.3276 -0.2845
    1DIPC   C4A23852  10.030  26.762   4.289  0.0864 -0.0486  0.0953
    1DIPC   C1B23853   9.320  27.511   3.815  0.0678 -0.1714 -0.1949
    1DIPC   D2B23854   9.182  27.632   4.274  0.0253 -0.0893 -0.0696
    1DIPC   D3B23855   8.954  27.839   4.025  0.0555 -0.0454 -0.1262
    1DIPC   C4B23856   8.544  27.776   3.749  0.0341 -0.0843 -0.2020
    1DIPC   NC323857  22.187  14.018   2.124  0.0883  0.0277 -0.1071
    1DIPC   PO423858  22.608  14.051   2.248 -0.2816 -0.2383  0.0147
    1DIPC   GL123859  22.827  14.183   2.598  0.0995 -0.0029 -0.2327
    1DIPC   GL223860  23.063  14.386   2.771  0.1056  0.1285  0.0554
    1DIPC   C1A23861  22.686  14.327   3.079 -0.0747 -0.2062  0.4366
    1DIPC   D2A23862  22.568  14.382   3.444 -0.0828 -0.1606 -0.1565
    1DIPC   D3A23863  22.619  14.684   3.827  0.1292 -0.0629  0.3190
    1DIPC   C4A23864  22.534  14.488   4.304  0.1191 -0.6084  0.0980
    1DIPC   C1B23865  23.140  14.391   3.277  0.1031  0.1856  0.3435
    1DIPC   D2B23866  23.053  14.477   3.622  0.1691  0.1579  0.1972
    1DIPC   D3B23867  23.090  14.199   3.915 -0.2076 -0.0983 -0.0258
    1DIPC   C4B23868  22.645  14.132   3.955 -0.1179  0.2940  0.0853
    1DIPC   NC323869  29.933  27.686   3.344 -0.3309 -0.1820  0.0095
    1DIPC   PO423870  30.108  27.945   3.529  0.2201  0.0500 -0.1200
    1DIPC   GL123871  29.851  27.853   3.931 -0.1565  0.0372  0.0445
    1DIPC   GL223872  29.866  27.460   3.836 -0.0643 -0.2224  0.0414
    1DIPC   C1A23873  29.855  27.708   4.309  0.0532  0.0636  0.4179
    1DIPC   D2A23874  30.119  27.462   4.473  0.0174 -0.2100 -0.2529
    1DIPC   D3A23875  30.144  27.687   4.837 -0.2096  0.1499 -0.0889
    1DIPC   C4A23876  30.226  27.509   5.241  0.0219  0.1046  0.0772
    1DIPC   C1B23877  30.193  27.325   3.983 -0.1549 -0.0326 -0.2478
    1DIPC   D2B23878   0.304  27.265   3.883  0.1016  0.0959  0.2533
    1DIPC   D3B23879   0.250  27.500   4.320 -0.0497  0.0829 -0.2881
    1DIPC   C4B23880   0.293  27.825   4.727  0.0089  0.3724  0.3021
    1DIPC   NC323881  26.974   0.057   3.406  0.1150 -0.1315  0.0967
    1DIPC   PO423882  26.732   0.438   3.540 -0.2046 -0.0722  0.3768
    1DIPC   GL123883  26.608   0.486   3.972 -0.0340  0.0969  0.0032
    1DIPC   GL223884  26.413   0.129   4.183 -0.2171  0.1209  0.0852
    1DIPC   C1A23885  26.506   0.717   4.325 -0.2920  0.0734 -0.1083
    1DIPC   D2A23886  26.347   0.922   4.637 -0.0975  0.1362  0.1114
    1DIPC   D3A23887  26.413   0.986   5.026  0.0412  0.2332  0.0611
    1DIPC   C4A23888  26.419   1.289   5.308  0.5124 -0.0639  0.1000
    1DIPC   C1B23889  26.113   0.411   4.427 -0.0321 -0.1507  0.3586
    1DIPC   D2B23890  25.894   0.817   4.314 -0.0450 -0.0911 -0.0734
    1DIPC   D3B23891  25.625   0.998   4.501  0.0429  0.0887 -0.3520
    1DIPC   C4B23892  25.294   1.041   4.288  0.2942  0.2636  0.1961
    1DIPC   NC323893  10.484   3.288   2.767  0.0671 -0.0667 -0.1158
    1DIPC   PO423894  10.659   3.566   2.626 -0.2206 -0.0529 -0.1305
    1DIPC   GL123895  10.961   3.580   3.005  0.0704  0.1362 -0.0933
    1DIPC   GL223896  11.278   3.627   3.006  0.1773  0.1818 -0.0667
    1DIPC   C1A23897  10.883   3.642   3.571  0.1540  0.1317  0.0418
    1DIPC   D2A23898  10.725   3.793   3.984 -0.4887 -0.1410  0.2445
    1DIPC   D3A23899  10.568   4.075   4.218 -0.1702 -0.1226 -0.0082
    1DIPC   C4A23900  10.696   3.923   4.595 -0.3341 -0.1991 -0.0113
    1DIPC   C1B23901  11.346   3.259   3.275 -0.0903 -0.0204  0.1827
    1DIPC   D2B23902  11.641   2.919   3.327  0.4249 -0.1160  0.1305
    1DIPC   D3B23903  11.391   2.893   3.695  0.0962 -0.0424  0.3227
    1DIPC   C4B23904  11.096   3.254   3.767 -0.0516  0.2041  0.1337
    1DIPC   NC323905  22.614  25.742   3.114 -0.0730 -0.0725 -0.2374
    1DIPC   PO423906  22.165  25.891   3.016  0.1128 -0.1093  0.0843
    1DIPC   GL123907  22.210  25.854   3.449 -0.1497 -0.0422  0.0266
    1DIPC   GL223908  22.575  25.754   3.640 -0.1017 -0.0335  0.1373
    1DIPC   C1A23909  22.064  25.713   3.825 -0.1232 -0.0843 -0.0850
    1DIPC   D2A23910  21.837  25.549   4.052 -0.0494 -0.2393 -0.0934
    1DIPC   D3A23911  21.951  25.753   4.373 -0.3426 -0.0045 -0.0873
    1DIPC   C4A23912  21.749  25.588   4.698 -0.0099  0.0432 -0.1659
    1DIPC   C1B23913  22.814  25.960   3.866  0.1942 -0.2914 -0.2652
    1DIPC   D2B23914  22.933  26.057   4.274  0.2721  0.0796 -0.1204
    1DIPC   D3B23915  22.572  25.881   4.346  0.0712  0.3224 -0.2784
    1DIPC   C4B23916  22.332  26.129   4.169 -0.1416  0.0561  0.2427
    1DIPC   NC323917  10.414  16.388   2.410 -0.0465 -0.1629 -0.0370
    1DIPC   PO423918  10.167  16.718   2.706 -0.0215  0.1349  0.1727
    1DIPC   GL123919  10.053  16.638   3.120  0.4436 -0.0752  0.0920
    1DIPC   GL223920   9.909  16.947   3.325  0.0026 -0.0798  0.0588
    1DIPC   C1A23921   9.670  16.512   3.375 -0.0612 -0.0187  0.2147
    1DIPC   D2A23922   9.330  16.669   3.631  0.4388  0.0753  0.0520
    1DIPC   D3A23923   9.524  16.470   3.925 -0.0386  0.1277 -0.3710
    1DIPC   C4A23924   9.244  16.208   4.175  0.0585 -0.0664  0.0317
    1DIPC   C1B23925   9.745  17.030   3.698 -0.0011  0.1388 -0.2607
    1DIPC   D2B23926   9.557  17.028   4.096 -0.0958 -0.0594 -0.0259
    1DIPC   D3B23927   9.527  17.386   4.310 -0.0583 -0.1120  0.2094
    1DIPC   C4B23928   9.740  17.492   4.737  0.3006 -0.2374  0.1850
    1DIPC   NC323929   8.939   4.352   2.995  0.1179 -0.2267  0.1089
    1DIPC   PO423930   9.074   4.770   3.319  0.0540 -0.2165 -0.0673
    1DIPC   GL123931   9.385   4.755   3.605  0.0165 -0.1354  0.1916
    1DIPC   GL223932   9.663   4.810   3.506 -0.0101 -0.1007 -0.0222
    1DIPC   C1A23933   9.480   5.065   4.030  0.1238 -0.0252 -0.0828
    1DIPC   D2A23934   9.622   5.230   4.478  0.0807 -0.0737 -0.0849
    1DIPC   D3A23935   9.433   4.845   4.477 -0.0006  0.0291  0.1215
    1DIPC   C4A23936   9.630   4.559   4.215 -0.0562  0.1168  0.0804
    1DIPC   C1B23937   9.954   4.582   3.749  0.3455 -0.0727  0.0989
    1DIPC   D2B23938  10.322   4.542   4.123  0.0223  0.2381  0.0552
    1DIPC   D3B23939  10.196   4.365   4.461  0.1663  0.0643  0.1031
    1DIPC   C4B23940   9.790   4.125   4.506  0.0900  0.4415 -0.3053
    1DIPC   NC323941  26.319  28.188   3.598  0.0472 -0.0665  0.2077
    1DIPC   PO423942  26.546  27.818   3.509  0.0434 -0.0174 -0.0582
    1DIPC   GL123943  26.713  28.063   3.841 -0.3251  0.2028  0.2736
    1DIPC   GL223944  26.429  27.967   4.063  0.0443  0.4124  0.2605
    1DIPC   C1A23945  27.004  28.229   4.128  0.1379  0.0376  0.0439
    1DIPC   D2A23946  27.249  28.365   4.314 -0.1662 -0.1513  0.0546
    1DIPC   D3A23947  27.297  28.202   4.811  0.1415  0.3121 -0.2910
    1DIPC   C4A23948  27.030  28.178   5.190  0.1725 -0.2219 -0.0698
    1DIPC   C1B23949  26.596  28.155   4.389 -0.3424  0.0366 -0.0440
    1DIPC   D2B23950  26.845  28.297   4.720  0.0190  0.0884 -0.1112
    1DIPC   D3B23951  26.965  27.849   4.671 -0.0848  0.0916 -0.0024
    1DIPC   C4B23952  27.371  27.848   4.468 -0.0686 -0.2165  0.0310
    1DIPC   NC323953   5.746  24.772   2.834 -0.1610  0.1052  0.5251
    1DIPC   PO423954   6.149  24.942   2.834  0.0179  0.0859 -0.0369
    1DIPC   GL123955   6.281  24.628   3.126  0.3030  0.1431 -0.0404
    1DIPC   GL223956   6.534  24.471   2.968  0.2842  0.1946 -0.0073
    1DIPC   C1A23957   6.142  24.286   3.472 -0.0047 -0.2850  0.0641
    1DIPC   D2A23958   6.097  24.178   3.881  0.2665 -0.1421  0.3765
    1DIPC   D3A23959   6.255  23.823   3.620 -0.1210 -0.0099 -0.0573
    1DIPC   C4A23960   6.368  23.442   3.748  0.1021  0.0031 -0.1692
    1DIPC   C1B23961   6.656  24.097   3.311  0.0751 -0.1699 -0.0618
    1DIPC   D2B23962   6.785  23.833   3.666  0.0777 -0.2536 -0.1539
    1DIPC   D3B23963   7.133  23.853   4.033  0.1305 -0.0399  0.3010
    1DIPC   C4B23964   7.387  23.565   4.110 -0.0538  0.4341 -0.5339
    1DIPC   NC323965   1.521   3.221   3.172 -0.1980  0.3331  0.0485
    1DIPC   PO423966   1.451   3.617   3.373  0.0150  0.2333 -0.2496
    1DIPC   GL123967   1.511   3.738   3.785 -0.1310  0.0029 -0.3493
    1DIPC   GL223968   1.423   4.022   3.852 -0.1742  0.2969  0.2300
    1DIPC   C1A23969   1.324   3.453   4.129 -0.1295  0.1217  0.0943
    1DIPC   D2A23970   1.304   3.586   4.492  0.2437  0.1514  0.4024
    1DIPC   D3A23971   1.711   3.598   4.457 -0.1526  0.0539 -0.2672
    1DIPC   C4A23972   1.906   3.500   4.078  0.1396 -0.0132  0.0919
    1DIPC   C1B23973   1.079   3.987   4.108  0.1585  0.2831  0.1607
    1DIPC   D2B23974   0.821   3.824   4.466  0.1209  0.4182 -0.0188
    1DIPC   D3B23975   0.780   3.938   4.913 -0.1209  0.0064 -0.0401
    1DIPC   C4B23976   0.677   4.245   5.061  0.1216 -0.1285 -0.0567
    1DIPC   NC323977  16.475  10.611   2.568 -0.0224 -0.0775  0.3162
    1DIPC   PO423978  16.479  10.836   2.959  0.0895  0.1715 -0.2552
    1DIPC   GL123979  16.576  10.482   3.167  0.2365  0.1177 -0.0579
    1DIPC   GL223980  16.667  10.679   3.476 -0.2764  0.1189  0.2398
    1DIPC   C1A23981  16.809  10.093   3.347  0.1232  0.3576 -0.0169
    1DIPC   D2A23982  17.047   9.831   3.533 -0.0584  0.1587  0.0935
    1DIPC   D3A23983  17.063   9.798   3.960 -0.0544  0.0514  0.4342
    1DIPC   C4A23984  17.129   9.426   4.034  0.1229 -0.0160  0.0644
    1DIPC   C1B23985  16.363  10.909   3.736  0.1738 -0.1152  0.0381
    1DIPC   D2B23986  16.098  10.971   4.090  0.4070  0.0649  0.0108
    1DIPC   D3B23987  16.061  10.680   4.448 -0.2141  0.3212  0.1002
    1DIPC   C4B23988  15.960  10.745   4.817  0.1448 -0.1208 -0.2505
    1DIPC   NC323989  20.861  24.007   1.945  0.0024 -0.0534  0.0732
    1DIPC   PO423990  20.968  24.022   2.360 -0.1615 -0.0906 -0.2126
    1DIPC   GL123991  21.152  23.677   2.590  0.2378  0.2547  0.1909
    1DIPC   GL223992  21.294  23.535   2.865 -0.2226  0.1533  0.0328
    1DIPC   C1A23993  21.211  23.935   3.075  0.3020  0.2834  0.2875
    1DIPC   D2A23994  21.080  23.758   3.450  0.0639 -0.4425 -0.0325
    1DIPC   D3A23995  20.744  23.745   3.691  0.1341 -0.0853  0.1259
    1DIPC   C4A23996  20.464  23.816   4.158  0.1531  0.0065 -0.0016
    1DIPC   C1B23997  21.561  23.533   3.287 -0.0842  0.0097  0.0579
    1DIPC   D2B23998  21.357  23.486   3.687 -0.0659 -0.3725  0.0123
    1DIPC   D3B23999  21.702  23.595   3.834 -0.1880 -0.0299 -0.1896
    1DIPC   C4B24000  21.842  23.483   4.232 -0.2859 -0.0689 -0.0370
    1DIPC   NC324001  21.826  12.845   2.174 -0.2397 -0.2760 -0.2298
    1DIPC   PO424002  21.755  12.502   2.409  0.0153  0.4668 -0.2852
    1DIPC   GL124003  21.931  12.551   2.738 -0.0438  0.0487 -0.2496
    1DIPC   GL224004  21.821  12.439   3.034  0.0678  0.4078 -0.0689
    1DIPC   C1A24005  22.374  12.649   2.876 -0.2879  0.2875 -0.1471
    1DIPC   D2A24006  22.710  12.869   3.032 -0.2520  0.2049  0.0407
    1DIPC   D3A24007  22.827  12.423   3.097  0.1318 -0.0780 -0.3650
    1DIPC   C4A24008  23.239  12.319   3.144 -0.1268  0.3140 -0.0343
    1DIPC   C1B24009  21.905  12.068   3.252 -0.1848  0.1182 -0.1691
    1DIPC   D2B24010  22.010  11.732   3.614 -0.0895  0.0464  0.0909
    1DIPC   D3B24011  21.973  12.147   3.799 -0.0940  0.2220  0.2300
    1DIPC   C4B24012  21.843  12.036   4.269 -0.0912 -0.0916  0.0157
    1DIPC   NC324013  15.511  17.456   2.900 -0.2078  0.2557  0.0342
    1DIPC   PO424014  15.983  17.476   2.992 -0.0839 -0.0845  0.0165
    1DIPC   GL124015  16.076  17.742   3.451 -0.0390 -0.2180 -0.0630
    1DIPC   GL224016  15.879  17.545   3.636  0.0320 -0.2031  0.0482
    1DIPC   C1A24017  16.201  17.937   3.813  0.1706 -0.2914 -0.0648
    1DIPC   D2A24018  16.186  18.060   4.228 -0.3829 -0.0444 -0.2452
    1DIPC   D3A24019  16.628  18.256   4.373 -0.1158 -0.0087  0.0274
    1DIPC   C4A24020  16.786  18.122   4.681  0.0160  0.1642 -0.0927
    1DIPC   C1B24021  15.874  17.646   4.052  0.0348 -0.1578 -0.2780
    1DIPC   D2B24022  16.103  17.456   4.451 -0.1374 -0.0250  0.1618
    1DIPC   D3B24023  15.966  17.092   4.668 -0.3268 -0.0670 -0.0349
    1DIPC   C4B24024  15.522  17.021   4.590  0.1176  0.0891  0.3307
    1DIPC   NC324025  26.695  25.023   2.215  0.1841 -0.1373 -0.0885
    1DIPC   PO424026  26.685  24.911   2.574 -0.0420 -0.0885  0.1233
    1DIPC   GL124027  26.586  24.764   2.906  0.3195  0.1756  0.0644
    1DIPC   GL224028  26.716  24.945   3.233  0.1359 -0.1618 -0.1739
    1DIPC   C1A24029  26.727  24.445   3.226 -0.0151  0.1982  0.1581
    1DIPC   D2A24030  26.862  24.231   3.588 -0.1191 -0.0442 -0.1625
    1DIPC   D3A24031  27.218  24.489   3.398 -0.1716  0.3821 -0.0900
    1DIPC   C4A24032  27.222  24.939   3.375 -0.1093 -0.0218  0.1968
    1DIPC   C1B24033  26.766  24.719   3.605  0.0460  0.0538 -0.4975
    1DIPC   D2B24034  26.819  24.624   4.103  0.1073 -0.0344  0.0957
    1DIPC   D3B24035  26.612  24.278   4.106 -0.0695 -0.0968  0.3339
    1DIPC   C4B24036  26.467  23.910   4.289 -0.0814 -0.4453  0.0336
    1DIPC   NC324037  27.914   2.665   3.071  0.1628 -0.1698  0.2290
    1DIPC   PO424038  27.901   3.041   3.392 -0.0448  0.1290  0.0333
    1DIPC   GL124039  27.975   3.286   3.787  0.0508 -0.1582 -0.1717
    1DIPC   GL224040  28.027   3.678   3.675 -0.0907 -0.0999  0.1521
    1DIPC   C1A24041  27.950   3.328   4.197  0.1700 -0.1128  0.0573
    1DIPC   D2A24042  27.748   3.256   4.524  0.2024 -0.1381 -0.2818
    1DIPC   D3A24043  27.641   3.139   4.980 -0.1189  0.0523  0.1685
    1DIPC   C4A24044  27.535   2.657   5.030  0.2465  0.0127  0.0738
    1DIPC   C1B24045  28.171   3.907   4.139 -0.0290  0.2009 -0.0140
    1DIPC   D2B24046  28.188   3.732   4.525  0.4066  0.2350  0.1293
    1DIPC   D3B24047  28.279   3.319   4.819 -0.0482 -0.2738  0.0171
    1DIPC   C4B24048  28.588   3.322   4.995 -0.0011 -0.0314 -0.0543
    1DIPC   NC324049   9.919   2.683   3.397  0.0382  0.2938  0.2053
    1DIPC   PO424050   9.505   2.457   3.319  0.0832  0.0017 -0.0213
    1DIPC   GL124051   9.496   2.183   3.685 -0.0775 -0.1860  0.1872
    1DIPC   GL224052   9.129   2.363   3.713 -0.0874 -0.1006 -0.1586
    1DIPC   C1A24053   9.572   1.977   3.981  0.2342 -0.1642 -0.0910
    1DIPC   D2A24054   9.354   1.957   4.372 -0.3294 -0.0394  0.3325
    1DIPC   D3A24055   9.740   1.877   4.479  0.3341  0.2548 -0.1494
    1DIPC   C4A24056   9.775   1.413   4.570  0.5288  0.2937  0.2012
    1DIPC   C1B24057   9.028   2.767   4.033  0.1675  0.0064 -0.4192
    1DIPC   D2B24058   8.770   2.619   4.356  0.1055  0.0321 -0.0537
    1DIPC   D3B24059   8.362   2.630   4.588  0.0384  0.0721 -0.0872
    1DIPC   C4B24060   8.285   2.554   5.038 -0.1200  0.1672  0.0428
    1DIPC   NC324061  17.794  18.943   2.466 -0.3178  0.1342  0.1115
    1DIPC   PO424062  17.920  18.406   2.429  0.1516 -0.0247  0.2043
    1DIPC   GL124063  18.198  18.469   2.705 -0.4564  0.1985  0.0304
    1DIPC   GL224064  18.008  18.690   2.936 -0.0843 -0.0972 -0.0552
    1DIPC   C1A24065  18.222  17.986   3.015  0.1158  0.1294 -0.1675
    1DIPC   D2A24066  18.189  17.480   3.012 -0.0874 -0.1380  0.1493
    1DIPC   D3A24067  17.815  17.660   2.931  0.1676  0.0350 -0.0849
    1DIPC   C4A24068  17.544  17.742   3.264 -0.0925 -0.1049 -0.0643
    1DIPC   C1B24069  18.124  18.371   3.314 -0.3538 -0.0873 -0.2102
    1DIPC   D2B24070  18.160  18.466   3.849  0.2309 -0.0551  0.2572
    1DIPC   D3B24071  18.371  18.252   4.228 -0.3462  0.2219 -0.2770
    1DIPC   C4B24072  18.766  18.324   4.225 -0.1175  0.2839  0.1827
    1DIPC   NC324073  17.964  25.305   2.671  0.0940 -0.0613 -0.2459
    1DIPC   PO424074  18.081  24.824   2.677  0.1576 -0.4376 -0.1854
    1DIPC   GL124075  18.062  24.902   3.144  0.2136 -0.1174 -0.1001
    1DIPC   GL224076  18.330  24.865   3.424 -0.1887  0.0089  0.3361
    1DIPC   C1A24077  18.381  25.267   3.229 -0.2156  0.0582  0.0362
    1DIPC   D2A24078  18.503  25.279   3.689 -0.2697 -0.0507  0.3224
    1DIPC   D3A24079  18.501  24.814   3.903 -0.3054  0.2570 -0.0106
    1DIPC   C4A24080  18.134  24.722   4.098 -0.0146  0.1621 -0.3562
    1DIPC   C1B24081  18.233  24.472   3.676 -0.1056  0.4497 -0.0027
    1DIPC   D2B24082  18.403  24.160   3.825  0.0065  0.0496  0.2137
    1DIPC   D3B24083  18.449  24.376   4.219  0.0570 -0.1324  0.1277
    1DIPC   C4B24084  18.371  24.776   4.493 -0.1772 -0.1111 -0.2119
    1DIPC   NC324085   2.232  24.101   2.631  0.2978 -0.1408 -0.0580
    1DIPC   PO424086   2.543  23.861   2.771  0.1215 -0.1922 -0.0068
    1DIPC   GL124087   2.657  24.000   3.135 -0.0584  0.0429 -0.1315
    1DIPC   GL224088   2.562  24.261   3.205 -0.3667  0.3171  0.0384
    1DIPC   C1A24089   2.867  23.784   3.482 -0.0616  0.4093  0.4423
    1DIPC   D2A24090   2.847  23.769   3.900  0.3562 -0.0833  0.2648
    1DIPC   D3A24091   2.935  23.660   4.232 -0.1676 -0.0785 -0.0021
    1DIPC   C4A24092   3.111  23.802   4.545 -0.0341 -0.2411 -0.1981
    1DIPC   C1B24093   2.598  24.490   3.487  0.0315  0.0287  0.4662
    1DIPC   D2B24094   2.330  24.770   3.760 -0.1946 -0.1177  0.4138
    1DIPC   D3B24095   2.377  24.704   4.269  0.0866  0.1182 -0.3134
    1DIPC   C4B24096   2.469  24.903   4.654  0.0885 -0.0553  0.0464
    1DIPC   NC324097   9.681   5.394   2.407 -0.2267  0.0687  0.1138
    1DIPC   PO424098   9.721   5.287   2.817 -0.0178 -0.1912 -0.1457
    1DIPC   GL124099   9.902   5.341   3.253 -0.2419 -0.0803  0.1740
    1DIPC   GL224100  10.208   5.477   3.218  0.0816  0.1611 -0.2949
    1DIPC   C1A24101   9.695   5.345   3.665  0.0780 -0.2941 -0.2907
    1DIPC   D2A24102   9.810   5.426   4.068 -0.0972  0.3565  0.0206
    1DIPC   D3A24103   9.455   5.616   4.254 -0.0085 -0.1902  0.0134
    1DIPC   C4A24104   9.417   5.766   4.721 -0.1388  0.5458 -0.3113
    1DIPC   C1B24105  10.172   5.617   3.614 -0.4248  0.0566  0.3880
    1DIPC   D2B24106  10.272   5.610   3.996  0.2164 -0.0348 -0.1007
    1DIPC   D3B24107  10.580   5.360   4.182 -0.0210  0.0280  0.0966
    1DIPC   C4B24108  10.604   5.686   4.524  0.3270 -0.3360  0.0142
    1DIPC   NC324109  16.069  27.172   3.198  0.0850 -0.0266 -0.2298
    1DIPC   PO424110  16.375  26.799   3.031 -0.0621 -0.1077  0.3310
    1DIPC   GL124111  16.562  27.098   3.422 -0.1605 -0.1932 -0.0978
    1DIPC   GL224112  16.502  27.382   3.425  0.3797 -0.2003  0.0529
    1DIPC   C1A24113  16.706  26.982   3.772  0.4504  0.0341 -0.2811
    1DIPC   D2A24114  16.774  26.984   4.231 -0.0116  0.1944 -0.1052
    1DIPC   D3A24115  16.636  27.138   4.656 -0.0684  0.1832 -0.1625
    1DIPC   C4A24116  16.888  27.099   5.070 -0.1269  0.1687 -0.0964
    1DIPC   C1B24117  16.311  27.400   3.901  0.0409  0.0033 -0.0373
    1DIPC   D2B24118  16.310  27.313   4.272  0.0994  0.4018 -0.0186
    1DIPC   D3B24119  16.207  26.887   4.345 -0.0619 -0.0070  0.1686
    1DIPC   C4B24120  16.451  26.582   4.510  0.1008  0.3325 -0.1448
    1DIPC   NC324121  25.974  25.310   2.850 -0.1458 -0.2492  0.2725
    1DIPC   PO424122  25.952  25.551   3.205  0.1487 -0.1484 -0.0118
    1DIPC   GL124123  25.892  25.424   3.538  0.0014 -0.1292 -0.0551
    1DIPC   GL224124  25.978  25.480   3.848 -0.2207 -0.1266 -0.0209
    1DIPC   C1A24125  25.534  25.178   3.670 -0.3435 -0.0506  0.4974
    1DIPC   D2A24126  25.569  24.765   3.607  0.0367 -0.0858 -0.0604
    1DIPC   D3A24127  25.724  24.499   3.262  0.0069 -0.2024  0.2873
    1DIPC   C4A24128  25.974  24.115   3.250  0.1469  0.0745 -0.0335
    1DIPC   C1B24129  26.396  25.300   3.709  0.3950 -0.3294 -0.1790
    1DIPC   D2B24130  26.796  25.225   3.628 -0.1116  0.2743  0.2065
    1DIPC   D3B24131  26.983  25.629   3.562  0.0777 -0.2031  0.1203
    1DIPC   C4B24132  26.962  25.988   3.803  0.1768  0.3909  0.2295
    1DIPC   NC324133  20.561  21.134   2.037 -0.1400  0.2322 -0.0580
    1DIPC   PO424134  20.720  21.442   2.177 -0.1779 -0.0987 -0.2135
    1DIPC   GL124135  20.501  21.228   2.538  0.0228 -0.1714 -0.3261
    1DIPC   GL224136  20.739  21.494   2.717 -0.1104 -0.1010  0.1168
    1DIPC   C1A24137  20.647  21.053   2.913  0.0450  0.0860 -0.0228
    1DIPC   D2A24138  20.683  20.927   3.495 -0.1258  0.0542  0.2076
    1DIPC   D3A24139  21.177  21.022   3.595  0.2075  0.1998  0.4383
    1DIPC   C4A24140  21.181  21.196   3.911 -0.3837 -0.3303  0.1844
    1DIPC   C1B24141  20.993  21.717   3.043  0.0369  0.1260  0.2387
    1DIPC   D2B24142  21.410  21.807   3.236  0.0540 -0.2052  0.2992
    1DIPC   D3B24143  21.364  21.470   3.439  0.4160  0.0011  0.2294
    1DIPC   C4B24144  21.683  21.185   3.455 -0.1112  0.3710 -0.1673
    1DIPC   NC324145  27.545   7.331   2.945  0.0830  0.2999 -0.1619
    1DIPC   PO424146  27.431   6.997   3.049 -0.2051 -0.2902 -0.0448
    1DIPC   GL124147  27.438   7.443   3.397  0.4028 -0.1365 -0.3057
    1DIPC   GL224148  27.705   7.520   3.587 -0.0832 -0.0192 -0.3426
    1DIPC   C1A24149  27.200   7.488   3.706  0.1554  0.0824 -0.2111
    1DIPC   D2A24150  26.950   7.617   4.139  0.3238  0.1438  0.2163
    1DIPC   D3A24151  26.760   7.913   4.375 -0.0794  0.3022 -0.0259
    1DIPC   C4A24152  26.526   7.986   4.693 -0.0220  0.1371  0.0666
    1DIPC   C1B24153  27.538   7.216   3.887  0.2595  0.0234 -0.0949
    1DIPC   D2B24154  27.567   7.054   4.304 -0.1286 -0.2959  0.0693
    1DIPC   D3B24155  27.613   7.055   4.751 -0.1046  0.1722 -0.4737
    1DIPC   C4B24156  27.505   7.359   5.087  0.1887  0.0398  0.1509
    1DIPC   NC324157   1.758  25.489   2.806 -0.3049 -0.3344 -0.1332
    1DIPC   PO424158   2.152  25.264   2.774 -0.0077 -0.1218 -0.3878
    1DIPC   GL124159   2.370  25.134   3.174  0.0565  0.0868 -0.0125
    1DIPC   GL224160   2.225  24.754   3.248 -0.2269  0.1558  0.0929
    1DIPC   C1A24161   2.649  25.153   3.560 -0.3469 -0.1845  0.0881
    1DIPC   D2A24162   2.603  25.117   4.018  0.0216  0.1728 -0.0027
    1DIPC   D3A24163   2.739  24.752   3.959 -0.1460  0.0391 -0.3240
    1DIPC   C4A24164   2.530  24.301   3.991 -0.2618  0.0286 -0.1168
    1DIPC   C1B24165   2.156  24.326   3.591  0.0929 -0.0347 -0.1419
    1DIPC   D2B24166   1.756  24.236   3.864  0.2561 -0.0634  0.1009
    1DIPC   D3B24167   1.946  24.542   4.218  0.3279 -0.1927  0.0765
    1DIPC   C4B24168   2.196  24.325   4.535 -0.1251 -0.3673  0.2904
    1DIPC   NC324169  22.359   6.387   2.911  0.2399 -0.0214 -0.0526
    1DIPC   PO424170  21.988   6.034   3.089 -0.0603 -0.2105 -0.3084
    1DIPC   GL124171  21.774   5.911   3.473  0.2351  0.3416  0.2819
    1DIPC   GL224172  21.832   5.720   3.800  0.3240 -0.0007 -0.0605
    1DIPC   C1A24173  21.298   5.825   3.731 -0.3184 -0.0023 -0.0462
    1DIPC   D2A24174  20.816   5.769   4.034 -0.3355 -0.0252 -0.2493
    1DIPC   D3A24175  20.949   5.432   4.279  0.0011  0.3451  0.1078
    1DIPC   C4A24176  20.770   5.439   4.662  0.2290  0.4396 -0.1706
    1DIPC   C1B24177  21.865   5.876   4.222 -0.1965 -0.4304 -0.0662
    1DIPC   D2B24178  21.989   6.199   4.567  0.0780 -0.1494  0.0545
    1DIPC   D3B24179  21.653   6.383   4.513 -0.0590 -0.3506 -0.1758
    1DIPC   C4B24180  21.607   6.723   4.729 -0.0882  0.2579 -0.2527
    1DIPC   NC324181  16.428   4.058   2.663  0.0949  0.5045  0.0074
    1DIPC   PO424182  16.102   4.125   2.851 -0.1611 -0.1345  0.1261
    1DIPC   GL124183  15.969   3.948   3.256  0.2141  0.2990  0.0358
    1DIPC   GL224184  15.733   4.222   3.230  0.1003  0.2568  0.0023
    1DIPC   C1A24185  15.941   3.583   3.564 -0.1630 -0.1336 -0.0498
    1DIPC   D2A24186  16.198   3.200   3.803 -0.0008  0.2746  0.0156
    1DIPC   D3A24187  16.339   3.182   4.207 -0.2192 -0.0607  0.1864
    1DIPC   C4A24188  16.759   2.968   4.228 -0.1023  0.1503 -0.5960
    1DIPC   C1B24189  15.918   4.461   3.483 -0.0626  0.1541 -0.3108
    1DIPC   D2B24190  16.026   4.810   3.762  0.4591  0.1372  0.0641
    1DIPC   D3B24191  16.392   4.596   3.603 -0.1687 -0.0688 -0.1463
    1DIPC   C4B24192  16.388   4.093   3.542 -0.2236  0.2792  0.0071
    1DIPC   NC324193  28.190   4.756   3.115  0.0639  0.1255 -0.3607
    1DIPC   PO424194  28.253   5.164   3.353  0.2978 -0.2594 -0.4602
    1DIPC   GL124195  28.315   5.219   3.733 -0.0822 -0.1371  0.2213
    1DIPC   GL224196  27.974   5.219   3.889  0.0732 -0.3501  0.0183
    1DIPC   C1A24197  28.317   5.652   4.021  0.0251  0.2881 -0.0555
    1DIPC   D2A24198  28.237   5.829   4.450 -0.0223 -0.0728 -0.0801
    1DIPC   D3A24199  28.245   6.147   4.840 -0.2047 -0.1626 -0.0408
    1DIPC   C4A24200  28.367   6.632   4.776 -0.3547  0.4049 -0.0154
    1DIPC   C1B24201  27.789   5.334   4.246 -0.1201  0.1269 -0.1615
    1DIPC   D2B24202  27.739   5.232   4.680  0.0637  0.0431 -0.1914
    1DIPC   D3B24203  27.302   5.454   4.596  0.0308 -0.2280  0.1442
    1DIPC   C4B24204  27.115   5.502   4.934  0.0118 -0.0842  0.1862
    1DIPC   NC324205  16.649  20.209   2.926 -0.2433 -0.1379  0.0231
    1DIPC   PO424206  16.817  20.544   2.567 -0.0676  0.1528  0.3673
    1DIPC   GL124207  16.525  20.724   2.960 -0.6585  0.0830 -0.2893
    1DIPC   GL224208  16.515  20.535   3.265  0.1565  0.2442 -0.2182
    1DIPC   C1A24209  16.072  20.661   3.040 -0.0563 -0.2726  0.1429
    1DIPC   D2A24210  15.605  20.736   3.205  0.0134  0.0852 -0.0686
    1DIPC   D3A24211  15.797  20.427   3.479  0.1104  0.4007 -0.2177
    1DIPC   C4A24212  15.751  20.120   3.747 -0.4429  0.0275 -0.1663
    1DIPC   C1B24213  16.924  20.708   3.531  0.0627  0.0283 -0.1127
    1DIPC   D2B24214  16.894  20.902   3.911  0.2729 -0.0420 -0.0206
    1DIPC   D3B24215  17.224  20.818   4.285  0.1908 -0.2333 -0.1687
    1DIPC   C4B24216  17.135  20.959   4.712 -0.1359  0.1030  0.1956
    1DIPC   NC324217   4.516   9.267   2.344 -0.1001  0.3301 -0.4020
    1DIPC   PO424218   4.784   9.624   2.439  0.1584 -0.0967 -0.0160
    1DIPC   GL124219   4.951   9.496   2.899 -0.0189  0.0496  0.1605
    1DIPC   GL224220   5.321   9.410   2.968  0.0841  0.0173 -0.1039
    1DIPC   C1A24221   4.774   9.576   3.326  0.0796  0.0883 -0.1988
    1DIPC   D2A24222   4.879   9.370   3.685 -0.0647 -0.0339  0.2152
    1DIPC   D3A24223   4.644   9.339   4.027 -0.0873 -0.0346 -0.0350
    1DIPC   C4A24224   4.633   9.749   4.286 -0.1063  0.1993  0.0539
    1DIPC   C1B24225   5.366   9.354   3.397  0.0384  0.1142 -0.1515
    1DIPC   D2B24226   5.378   9.288   3.854  0.0549 -0.0428 -0.0470
    1DIPC   D3B24227   5.162   9.502   4.125 -0.0164  0.1100  0.0476
    1DIPC   C4B24228   4.978   9.223   4.383  0.0663  0.0293  0.0984
    1DIPC   NC324229  23.378  28.369   3.047  0.0719  0.0288 -0.0330
    1DIPC   PO424230  23.169  28.001   3.412 -0.1915  0.0647  0.1788
    1DIPC   GL124231  23.212  28.300   3.708  0.1891 -0.2803  0.0618
    1DIPC   GL224232  23.099  28.627   3.681 -0.5647  0.1721 -0.1121
    1DIPC   C1A24233  23.041  28.341   4.130 -0.2686  0.2674  0.0179
    1DIPC   D2A24234  23.079  28.822   4.444  0.1702 -0.2100 -0.2180
    1DIPC   D3A24235  23.043  28.681   4.966  0.3713 -0.1229  0.0956
    1DIPC   C4A24236  22.760  28.907   5.347  0.1954  0.0339 -0.0117
    1DIPC   C1B24237  23.378  28.688   4.048 -0.1661  0.0812 -0.0614
    1DIPC   D2B24238  23.578  28.942   4.455  0.1542  0.1509 -0.4862
    1DIPC   D3B24239  23.706  29.198   4.051  0.0234  0.2978 -0.0353
    1DIPC   C4B24240  24.065  29.172   3.973  0.0933  0.1699 -0.0997
    1DIPC   NC324241  21.406   1.402   2.855 -0.2657 -0.4888  0.1114
    1DIPC   PO424242  21.236   1.126   2.950 -0.0266  0.0551  0.4738
    1DIPC   GL124243  21.160   1.162   3.366 -0.3621 -0.1473  0.2160
    1DIPC   GL224244  21.300   1.303   3.550  0.2331 -0.0748 -0.3920
    1DIPC   C1A24245  20.830   1.359   3.718 -0.0459 -0.0786  0.2703
    1DIPC   D2A24246  20.466   1.473   3.928  0.0203  0.2314  0.0046
    1DIPC   D3A24247  20.333   1.268   4.247  0.1359  0.0444  0.0769
    1DIPC   C4A24248  20.405   1.367   4.656 -0.1690  0.1155 -0.1015
    1DIPC   C1B24249  21.512   1.321   3.864  0.0147 -0.0140 -0.0523
    1DIPC   D2B24250  21.615   1.110   4.230  0.0862  0.1362 -0.1029
    1DIPC   D3B24251  21.348   1.323   4.418  0.1395  0.2321 -0.1761
    1DIPC   C4B24252  21.079   1.838   4.502  0.0555 -0.0146 -0.1091
    1DIPC   NC324253   2.116   2.457   3.649 -0.0858 -0.0536  0.1322
    1DIPC   PO424254   1.919   2.861   3.591  0.1923 -0.0474 -0.0143
    1DIPC   GL124255   1.699   2.844   3.976 -0.2097  0.3327  0.1416
    1DIPC   GL224256   1.383   2.700   3.959 -0.0130 -0.1204  0.1601
    1DIPC   C1A24257   1.669   3.022   4.286 -0.1243  0.2801  0.1382
    1DIPC   D2A24258   1.888   3.188   4.694  0.1249  0.3979 -0.1410
    1DIPC   D3A24259   2.148   2.828   4.633  0.0442 -0.2240 -0.0347
    1DIPC   C4A24260   1.937   2.556   4.261 -0.1049 -0.1973  0.1060
    1DIPC   C1B24261   1.339   2.621   4.414 -0.1681 -0.1370 -0.0288
    1DIPC   D2B24262   1.199   2.669   4.822 -0.4052  0.0801  0.2011
    1DIPC   D3B24263   0.991   3.043   5.068  0.0148  0.1638  0.2372
    1DIPC   C4B24264   1.011   3.564   4.965  0.2262 -0.3926 -0.0097
    1DIPC   NC324265  24.335   2.014   3.120  0.0029  0.0346  0.2429
    1DIPC   PO424266  24.530   2.346   3.536  0.1889  0.0927  0.2434
    1DIPC   GL124267  24.628   2.238   3.911 -0.0406  0.4047 -0.0270
    1DIPC   GL224268  24.846   2.008   4.124  0.2150 -0.1412 -0.1020
    1DIPC   C1A24269  24.531   2.497   4.192  0.1378 -0.0929  0.0470
    1DIPC   D2A24270  24.432   2.845   4.479  0.0175 -0.3385 -0.2783
    1DIPC   D3A24271  24.071   2.590   4.469 -0.1233 -0.2995 -0.2068
    1DIPC   C4A24272  23.890   2.434   4.793 -0.2057  0.4383 -0.2810
    1DIPC   C1B24273  24.846   2.001   4.518  0.3302  0.0341  0.0425
    1DIPC   D2B24274  24.564   1.912   4.847  0.1256 -0.2663  0.0928
    1DIPC   D3B24275  24.536   1.971   5.205 -0.1752  0.0399 -0.0418
    1DIPC   C4B24276  24.356   1.633   5.283 -0.0840 -0.1475 -0.0008
    1DIPC   NC324277  24.173  10.585   2.264 -0.2102 -0.0825  0.0732
    1DIPC   PO424278  24.368  10.999   2.130  0.0124 -0.1819  0.0038
    1DIPC   GL124279  24.155  11.112   2.540 -0.3073  0.2831  0.0296
    1DIPC   GL224280  24.132  10.837   2.728  0.3106 -0.1805 -0.0028
    1DIPC   C1A24281  23.739  11.358   2.742  0.0714  0.0149  0.0563
    1DIPC   D2A24282  23.650  11.360   3.263 -0.1942 -0.1324 -0.0303
    1DIPC   D3A24283  23.661  11.479   3.634  0.2394  0.0914  0.1148
    1DIPC   C4A24284  24.068  11.702   3.629 -0.0229  0.0699 -0.3186
    1DIPC   C1B24285  23.867  10.914   3.095  0.0560  0.0679 -0.0636
    1DIPC   D2B24286  23.719  10.940   3.573 -0.0534 -0.3754 -0.0308
    1DIPC   D3B24287  24.110  11.159   3.599 -0.2371  0.1825  0.0880
    1DIPC   C4B24288  24.510  11.055   3.668  0.0309 -0.0027 -0.2923
    1DIPC   NC324289   8.123   7.011   3.058  0.1495  0.1851 -0.0641
    1DIPC   PO424290   8.532   6.845   3.045  0.0076 -0.0032  0.1004
    1DIPC   GL124291   8.927   6.826   3.127  0.3378  0.0308  0.3122
    1DIPC   GL224292   9.059   6.924   3.386  0.0315 -0.2386 -0.3540
    1DIPC   C1A24293   9.118   6.446   3.360 -0.1165 -0.2987 -0.1549
    1DIPC   D2A24294   9.038   6.205   3.796  0.0713 -0.1326  0.2059
    1DIPC   D3A24295   8.951   6.575   4.146 -0.1556 -0.0461 -0.0936
    1DIPC   C4A24296   9.000   6.435   4.580 -0.2040  0.1897 -0.4026
    1DIPC   C1B24297   9.260   6.730   3.750  0.0965 -0.0233 -0.0923
    1DIPC   D2B24298   9.458   6.561   4.109  0.3546  0.2116  0.1876
    1DIPC   D3B24299   9.321   6.737   4.436 -0.0052  0.2148  0.0990
    1DIPC   C4B24300   9.403   7.019   4.590 -0.1361  0.1484 -0.1147
    1DIPC   NC324301  26.365  30.040   4.041 -0.0690 -0.0552 -0.2978
    1DIPC   PO424302  25.909  29.872   4.010  0.2186 -0.1107  0.2760
    1DIPC   GL124303  25.679  29.606   4.226  0.0891 -0.0054 -0.3120
    1DIPC   GL224304  25.371  29.459   4.225 -0.0247  0.3392  0.0251
    1DIPC   C1A24305  25.852  29.429   4.576  0.3496 -0.3089 -0.1344
    1DIPC   D2A24306  26.086  29.545   4.889 -0.0899 -0.0167 -0.1610
    1DIPC   D3A24307  26.187  29.178   5.002 -0.0781 -0.0474  0.1717
    1DIPC   C4A24308  26.285  28.965   5.311 -0.2425  0.3104  0.0343
    1DIPC   C1B24309  25.351  29.493   4.640  0.1891  0.2845  0.0957
    1DIPC   D2B24310  25.033  29.466   4.964 -0.1668 -0.3425 -0.0007
    1DIPC   D3B24311  24.832  29.133   5.127 -0.2175  0.1763  0.5479
    1DIPC   C4B24312  24.460  28.802   4.932 -0.0735 -0.2453  0.0412
    1DIPC   NC324313  18.942  18.914   1.944 -0.0795  0.2919 -0.2205
    1DIPC   PO424314  18.738  18.571   2.293 -0.0186 -0.1355  0.0286
    1DIPC   GL124315  18.766  18.279   2.644  0.0271  0.1514  0.0641
    1DIPC   GL224316  18.779  18.148   2.798 -0.1503  0.0405 -0.0675
    1DIPC   C1A24317  18.689  18.535   3.020 -0.3035 -0.0330 -0.1505
    1DIPC   D2A24318  18.555  18.595   3.476 -0.1471 -0.0398  0.0924
    1DIPC   D3A24319  18.757  18.767   3.828 -0.1948  0.2378 -0.0908
    1DIPC   C4A24320  18.891  19.002   4.207 -0.0704  0.1643  0.1768
    1DIPC   C1B24321  18.749  18.093   3.340 -0.3327  0.0312 -0.1939
    1DIPC   D2B24322  18.574  18.208   3.736 -0.0378  0.0809 -0.2865
    1DIPC   D3B24323  18.962  18.304   3.748 -0.0942  0.2395 -0.1553
    1DIPC   C4B24324  19.300  18.066   3.567 -0.0239  0.2653 -0.0880
    1DIPC   NC324325  29.031   2.368   3.407 -0.0986 -0.0065  0.1509
    1DIPC   PO424326  28.903   2.083   3.639  0.2880 -0.0293  0.0149
    1DIPC   GL124327  28.990   2.019   4.063  0.0269  0.2732  0.0805
    1DIPC   GL224328  29.040   2.181   4.265  0.0358 -0.0913 -0.3534
    1DIPC   C1A24329  29.312   1.778   4.297  0.1344  0.3259  0.0101
    1DIPC   D2A24330  29.583   1.730   4.517  0.3030  0.0992 -0.0221
    1DIPC   D3A24331  29.210   1.809   4.831 -0.0342 -0.2029 -0.1507
    1DIPC   C4A24332  28.826   1.696   4.577 -0.1188  0.3783 -0.2160
    1DIPC   C1B24333  28.892   2.443   4.732  0.2151  0.1690 -0.1366
    1DIPC   D2B24334  28.759   2.768   5.077  0.1532 -0.2384  0.0542
    1DIPC   D3B24335  29.089   2.893   5.241 -0.0598  0.2649 -0.1513
    1DIPC   C4B24336  29.180   3.209   5.478  0.2791 -0.0219  0.0646
    1DIPC   NC324337  18.873  10.602   3.054  0.2130 -0.2560  0.1513
    1DIPC   PO424338  19.059  10.313   2.767 -0.0651 -0.1369 -0.0566
    1DIPC   GL124339  19.323  10.399   3.109 -0.1214 -0.0837  0.2396
    1DIPC   GL224340  19.383  10.671   3.118  0.1014 -0.0558 -0.2248
    1DIPC   C1A24341  19.533  10.266   3.473 -0.3172 -0.2169 -0.2208
    1DIPC   D2A24342  19.897  10.082   3.669  0.1228  0.1260  0.0823
    1DIPC   D3A24343  20.373  10.050   3.777  0.1698 -0.1065 -0.1208
    1DIPC   C4A24344  20.638  10.236   3.527  0.2570  0.2123 -0.0805
    1DIPC   C1B24345  19.626  10.837   3.514  0.0917  0.0228  0.4218
    1DIPC   D2B24346  19.647  10.537   3.919  0.4464 -0.2188 -0.0244
    1DIPC   D3B24347  19.372  10.647   4.189 -0.1708  0.0995  0.3818
    1DIPC   C4B24348  19.247  10.392   4.477 -0.0798  0.0346  0.1147
    1DIPC   NC324349   4.833   0.623   3.018 -0.0804 -0.1730  0.2395
    1DIPC   PO424350   5.069   0.623   3.285  0.1564  0.2195  0.1355
    1DIPC   GL124351   4.846   0.739   3.533 -0.2863  0.1173 -0.0812
    1DIPC   GL224352   4.794   0.434   3.654  0.1224  0.2175  0.3166
    1DIPC   C1A24353   4.890   1.097   3.919  0.0097  0.1347 -0.0945
    1DIPC   D2A24354   5.090   1.058   4.339  0.0021 -0.0758 -0.3627
    1DIPC   D3A24355   5.331   1.476   4.505 -0.1685  0.1647 -0.2440
    1DIPC   C4A24356   5.059   1.755   4.800  0.0748 -0.1053 -0.2220
    1DIPC   C1B24357   4.807   0.621   4.065  0.0643 -0.0755 -0.2681
    1DIPC   D2B24358   4.534   0.979   4.236  0.0326 -0.1127 -0.1411
    1DIPC   D3B24359   4.075   1.074   4.307 -0.0520  0.0707  0.1288
    1DIPC   C4B24360   3.879   1.441   4.066 -0.0683 -0.4096 -0.2789
    1DIPC   NC324361  23.456  25.792   2.608 -0.0491 -0.1084 -0.0153
    1DIPC   PO424362  23.094  25.714   2.840 -0.2745 -0.2625  0.0010
    1DIPC   GL124363  23.089  25.687   3.253 -0.1401  0.4507 -0.2274
    1DIPC   GL224364  23.312  25.378   3.410 -0.1324 -0.0320 -0.1638
    1DIPC   C1A24365  23.197  25.675   3.790  0.2491 -0.0566  0.1348
    1DIPC   D2A24366  22.827  25.466   4.117 -0.0987  0.0057 -0.1731
    1DIPC   D3A24367  23.286  25.661   4.319 -0.1473 -0.0875 -0.3540
    1DIPC   C4A24368  23.460  25.579   4.691 -0.0643  0.4034  0.0517
    1DIPC   C1B24369  22.902  25.330   3.493 -0.1042 -0.1346 -0.0192
    1DIPC   D2B24370  22.570  25.155   3.748  0.0186  0.2782  0.3100
    1DIPC   D3B24371  22.160  25.216   3.818  0.1751 -0.1608 -0.0952
    1DIPC   C4B24372  21.879  25.219   3.624  0.1146 -0.2087 -0.3786
    1DIPC   NC324373  26.703  27.547   2.767  0.0972 -0.3506  0.0326
    1DIPC   PO424374  26.737  27.388   3.230  0.4570 -0.2395 -0.0849
    1DIPC   GL124375  26.794  27.306   3.599 -0.2238 -0.1864  0.1901
    1DIPC   GL224376  26.627  27.488   3.874 -0.2654  0.0274  0.0094
    1DIPC   C1A24377  26.864  26.944   3.809 -0.0149  0.1164 -0.0138
    1DIPC   D2A24378  26.937  26.435   3.998  0.1396  0.1540  0.2413
    1DIPC   D3A24379  27.330  26.376   3.815  0.0315  0.0801  0.2201
    1DIPC   C4A24380  27.598  26.709   3.954 -0.2402 -0.1099 -0.0105
    1DIPC   C1B24381  26.773  27.242   4.207  0.2484 -0.0598  0.1526
    1DIPC   D2B24382  27.103  27.420   4.500  0.2059  0.2449  0.2080
    1DIPC   D3B24383  27.508  27.250   4.810 -0.1657 -0.1720 -0.0334
    1DIPC   C4B24384  27.839  27.519   5.029  0.0060  0.4395  0.0076
    1DIPC   NC324385  14.176  28.776   3.318  0.0457  0.0742 -0.2730
    1DIPC   PO424386  14.503  29.123   3.195 -0.2955 -0.1267  0.1749
    1DIPC   GL124387  14.628  29.067   3.662  0.0349  0.0348 -0.0349
    1DIPC   GL224388  15.047  29.107   3.516  0.2939  0.3151  0.0836
    1DIPC   C1A24389  14.298  28.981   3.942 -0.0209 -0.1665 -0.2656
    1DIPC   D2A24390  13.942  28.831   4.348 -0.1315 -0.0483 -0.1393
    1DIPC   D3A24391  13.700  29.261   4.541 -0.0858  0.0461  0.0741
    1DIPC   C4A24392  13.572  29.350   4.992 -0.0316  0.0211 -0.3308
    1DIPC   C1B24393  15.103  29.485   3.700 -0.0923 -0.2624  0.0704
    1DIPC   D2B24394  15.352  29.920   3.632 -0.2750 -0.0365 -0.0905
    1DIPC   D3B24395  15.315  30.320   3.772 -0.1953 -0.1553 -0.0671
    1DIPC   C4B24396  15.315   0.218   3.463 -0.0114 -0.1265  0.2065
    1DIPC   NC324397  20.016  24.510   2.307  0.2550 -0.2143  0.0352
    1DIPC   PO424398  19.942  24.109   2.440  0.2303 -0.0358  0.0723
    1DIPC   GL124399  19.797  23.873   2.970  0.2748  0.1209 -0.0199
    1DIPC   GL224400  20.013  23.706   3.209 -0.1422 -0.1025  0.0142
    1DIPC   C1A24401  19.517  23.668   3.312  0.1548  0.1191  0.2057
    1DIPC   D2A24402  19.500  23.612   3.696 -0.3308 -0.0066  0.0822
    1DIPC   D3A24403  19.148  23.479   3.978  0.2429 -0.0031  0.0639
    1DIPC   C4A24404  19.236  23.139   4.335  0.0366  0.1995 -0.2218
    1DIPC   C1B24405  19.816  23.330   3.501  0.1344 -0.0631 -0.1497
    1DIPC   D2B24406  19.993  22.948   3.529 -0.0382  0.2631 -0.1559
    1DIPC   D3B24407  19.732  22.636   3.346 -0.0429 -0.1607  0.1409
    1DIPC   C4B24408  19.824  22.687   2.893  0.3185  0.0010 -0.0116
    1DIPC   NC324409  24.189   0.094   3.105  0.2007 -0.2194 -0.0749
    1DIPC   PO424410  24.573   0.315   2.977  0.1597 -0.1882 -0.2787
    1DIPC   GL124411  24.757   0.174   3.408 -0.3118 -0.0157  0.3562
    1DIPC   GL224412  24.667  30.289   3.380  0.1745 -0.0394 -0.1002
    1DIPC   C1A24413  24.783   0.140   3.845 -0.0607  0.3028  0.0335
    1DIPC   D2A24414  24.960  30.134   3.938 -0.2213  0.0369 -0.2337
    1DIPC   D3A24415  24.872  30.051   4.421  0.1045  0.1371 -0.0637
    1DIPC   C4A24416  24.928  29.605   4.417  0.0547  0.1399 -0.0981
    1DIPC   C1B24417  24.450  30.016   3.713  0.0658 -0.1029  0.2190
    1DIPC   D2B24418  24.656  29.751   4.002 -0.1763  0.2575  0.1552
    1DIPC   D3B24419  24.365  29.602   4.179  0.0918 -0.1563  0.0740
    1DIPC   C4B24420  24.261  29.752   4.561 -0.0945  0.0302 -0.0686
    1DIPC   NC324421  19.648  15.449   2.407  0.0359 -0.1813 -0.1914
    1DIPC   PO424422  19.515  15.615   2.745  0.1309  0.5272 -0.0125
    1DIPC   GL124423  19.611  15.815   2.982  0.0641  0.0711  0.3579
    1DIPC   GL224424  19.444  15.960   3.182  0.0365  0.0357  0.2551
    1DIPC   C1A24425  19.940  15.828   3.335  0.1002 -0.1886  0.2023
    1DIPC   D2A24426  19.829  15.986   3.729 -0.2865 -0.0217  0.1478
    1DIPC   D3A24427  20.156  16.246   3.912 -0.1030  0.0850  0.2011
    1DIPC   C4A24428  20.357  16.123   4.282  0.2538 -0.2750 -0.0215
    1DIPC   C1B24429  19.367  15.906   3.662 -0.0189  0.1358 -0.3813
    1DIPC   D2B24430  19.068  15.778   3.968  0.2605  0.1009 -0.3044
    1DIPC   D3B24431  18.763  15.948   4.316  0.1275  0.3940 -0.0110
    1DIPC   C4B24432  18.849  16.331   4.480 -0.3004 -0.0987 -0.6403
    1DIPC   NC324433  11.087   5.160   2.579 -0.0168  0.2316 -0.1023
    1DIPC   PO424434  11.193   4.935   3.050  0.0606  0.1546  0.0225
    1DIPC   GL124435  11.102   4.809   3.483 -0.1523  0.0938  0.1605
    1DIPC   GL224436  10.805   4.781   3.436 -0.2496 -0.1664 -0.0104
    1DIPC   C1A24437  11.496   4.996   3.727 -0.0991 -0.1114 -0.0445
    1DIPC   D2A24438  11.699   4.956   4.139  0.3134  0.0175  0.2723
    1DIPC   D3A24439  12.080   5.134   4.145  0.0538  0.0073 -0.1542
    1DIPC   C4A24440  12.414   4.815   4.212 -0.1871  0.2015  0.3494
    1DIPC   C1B24441  10.625   4.857   3.843  0.1359  0.0169 -0.1412
    1DIPC   D2B24442  10.710   4.910   4.265 -0.0315 -0.3814 -0.2982
    1DIPC   D3B24443  10.509   4.775   4.518  0.2172  0.1006 -0.1322
    1DIPC   C4B24444  10.616   4.406   4.722 -0.1095  0.2882  0.1610
    1DIPC   NC324445  26.337  24.437   2.496  0.2402  0.1553  0.3024
    1DIPC   PO424446  26.198  24.905   2.648  0.2019 -0.4394  0.0992
    1DIPC   GL124447  26.064  24.855   3.107 -0.1496 -0.0644  0.3173
    1DIPC   GL224448  26.187  25.088   3.281 -0.0358 -0.1247 -0.0554
    1DIPC   C1A24449  26.174  24.583   3.373 -0.1579 -0.1644 -0.1147
    1DIPC   D2A24450  26.090  24.335   3.750 -0.1829  0.0562 -0.0656
    1DIPC   D3A24451  25.986  24.503   4.102  0.2776  0.1152  0.1806
    1DIPC   C4A24452  25.667  24.866   4.066  0.1425  0.0934 -0.0071
    1DIPC   C1B24453  26.012  24.942   3.648 -0.2424 -0.0807  0.0785
    1DIPC   D2B24454  26.378  24.746   3.895 -0.1297  0.0597 -0.0944
    1DIPC   D3B24455  26.145  24.972   4.138  0.1393 -0.0455 -0.0520
    1DIPC   C4B24456  25.966  24.833   4.537 -0.2120 -0.0063  0.2525
    1DIPC   NC324457  18.563   0.601   2.780  0.0626 -0.1942  0.0933
    1DIPC   PO424458  18.701   0.149   2.764  0.1198  0.1403 -0.0190
    1DIPC   GL124459  18.662   0.231   3.153 -0.0954 -0.3347  0.0303
    1DIPC   GL224460  18.408   0.426   3.216  0.2201  0.1254 -0.1756
    1DIPC   C1A24461  18.830   0.249   3.510  0.1784 -0.1258 -0.1745
    1DIPC   D2A24462  18.661   0.297   3.911 -0.0258 -0.1626 -0.0956
    1DIPC   D3A24463  18.621   0.353   4.402  0.1043  0.3298  0.1849
    1DIPC   C4A24464  18.486   0.529   4.713 -0.2411 -0.3048  0.2101
    1DIPC   C1B24465  18.278   0.261   3.598  0.0489  0.4382  0.1001
    1DIPC   D2B24466  17.950   0.264   3.941 -0.0725 -0.0950  0.2127
    1DIPC   D3B24467  17.779   0.656   4.227  0.2300 -0.0825  0.1203
    1DIPC   C4B24468  17.533   0.619   4.552  0.0740 -0.1116 -0.1425
    1DIPC   NC324469  23.215   6.843   2.518  0.0622  0.3658 -0.1616
    1DIPC   PO424470  23.535   7.031   2.746  0.0562  0.1686  0.2586
    1DIPC   GL124471  23.602   7.210   3.153  0.3335  0.3024  0.1735
    1DIPC   GL224472  23.489   7.543   3.331  0.0659 -0.0860  0.0666
    1DIPC   C1A24473  23.552   7.068   3.478 -0.0061 -0.0946  0.0409
    1DIPC   D2A24474  23.543   6.609   3.552  0.1423 -0.0113  0.0948
    1DIPC   D3A24475  23.209   6.764   3.838 -0.2119  0.2224 -0.0371
    1DIPC   C4A24476  22.757   6.857   3.695  0.0713  0.3800  0.0773
    1DIPC   C1B24477  23.832   7.543   3.583 -0.2026  0.0640 -0.1574
    1DIPC   D2B24478  23.997   7.556   3.945  0.1152  0.0026  0.0350
    1DIPC   D3B24479  23.924   7.355   4.343  0.1281  0.2106  0.0110
    1DIPC   C4B24480  23.698   7.384   4.685  0.2420 -0.0605 -0.1492
    1DIPC   NC324481   9.632  26.755   3.052  0.0525  0.1319  0.3995
    1DIPC   PO424482   9.516  26.430   2.957 -0.3384 -0.1277  0.1391
    1DIPC   GL124483   9.490  26.348   3.360 -0.2392  0.1633 -0.0890
    1DIPC   GL224484   9.244  26.371   3.438 -0.3383  0.1312 -0.2215
    1DIPC   C1A24485   9.888  26.294   3.593  0.4010 -0.1527 -0.1577
    1DIPC   D2A24486  10.059  26.405   3.901 -0.0320  0.0888  0.0857
    1DIPC   D3A24487  10.359  26.173   3.927  0.0094 -0.0405 -0.2189
    1DIPC   C4A24488  10.501  25.876   4.194 -0.1649  0.0507 -0.1249
    1DIPC   C1B24489   9.135  26.443   3.835  0.0416  0.0057 -0.0646
    1DIPC   D2B24490   8.875  26.319   4.242  0.2052 -0.3035 -0.0656
    1DIPC   D3B24491   8.622  26.347   4.519 -0.1479  0.0008 -0.0029
    1DIPC   C4B24492   8.781  26.540   4.874 -0.3354 -0.2088  0.2089
    1DIPC   NC324493  11.071  11.866   2.746 -0.4905 -0.1351  0.3838
    1DIPC   PO424494  10.939  11.496   3.052 -0.2121  0.2975 -0.3640
    1DIPC   GL124495  10.870  11.641   3.610 -0.0386  0.2311  0.0081
    1DIPC   GL224496  10.549  11.811   3.665 -0.2209 -0.3633  0.1062
    1DIPC   C1A24497  10.856  11.877   4.010  0.0986 -0.3365  0.1804
    1DIPC   D2A24498  10.669  12.154   4.423  0.2377  0.1479  0.1195
    1DIPC   D3A24499  10.805  12.423   4.765  0.4423  0.2303 -0.1467
    1DIPC   C4A24500  11.147  12.267   5.039 -0.0771  0.0373 -0.1021
    1DIPC   C1B24501  10.323  11.896   4.068  0.1411 -0.0297  0.2212
    1DIPC   D2B24502  10.089  11.900   4.434 -0.2907  0.0767  0.1902
    1DIPC   D3B24503  10.202  12.143   4.668 -0.1663 -0.1154 -0.0290
    1DIPC   C4B24504  10.294  12.647   4.684  0.0161 -0.2486  0.0420
    1DIPC   NC324505   5.972   5.290   3.019 -0.2716  0.4158  0.1420
    1DIPC   PO424506   5.479   5.342   3.064  0.1017  0.1842 -0.2260
    1DIPC   GL124507   5.584   5.453   3.479  0.1635  0.1244 -0.0566
    1DIPC   GL224508   5.895   5.376   3.499  0.0883  0.1770 -0.0961
    1DIPC   C1A24509   5.385   5.693   3.814  0.1525  0.0609  0.1369
    1DIPC   D2A24510   5.591   6.001   4.083  0.0773  0.0787  0.0801
    1DIPC   D3A24511   5.719   6.319   3.802 -0.1102 -0.0114 -0.5210
    1DIPC   C4A24512   5.963   6.672   3.869  0.1365  0.0109 -0.2301
    1DIPC   C1B24513   6.177   5.371   3.809  0.0005  0.0949  0.0738
    1DIPC   D2B24514   6.590   5.591   3.930 -0.1678  0.0641 -0.2330
    1DIPC   D3B24515   6.504   5.456   4.354  0.2067  0.0410 -0.1510
    1DIPC   C4B24516   6.651   5.422   4.737 -0.0248  0.1275  0.1103
    1DIPC   NC324517  14.097   1.326   3.243  0.0828  0.1569  0.0962
    1DIPC   PO424518  14.183   0.839   3.173  0.0110  0.0871 -0.0337
    1DIPC   GL124519  14.244   0.985   3.589 -0.1772 -0.0115  0.3550
    1DIPC   GL224520  13.976   1.163   3.716  0.3465  0.2763 -0.2341
    1DIPC   C1A24521  14.363   1.095   4.035 -0.2104 -0.1186 -0.3296
    1DIPC   D2A24522  14.724   1.234   4.293 -0.1050 -0.0700 -0.0931
    1DIPC   D3A24523  14.859   1.018   4.535 -0.2706 -0.0039 -0.2199
    1DIPC   C4A24524  15.032   1.113   4.916 -0.1002  0.3262 -0.0513
    1DIPC   C1B24525  14.089   1.532   3.973 -0.2032  0.0619  0.0983
    1DIPC   D2B24526  14.349   1.570   4.375  0.0257  0.0876  0.1191
    1DIPC   D3B24527  14.478   1.840   4.097  0.2045  0.1498 -0.1460
    1DIPC   C4B24528  14.885   1.708   3.992 -0.1211 -0.2281 -0.1627
    1DIPC   NC324529  22.643  15.783   1.642  0.2216  0.1968  0.1920
    1DIPC   PO424530  22.727  15.824   2.036  0.1193 -0.0350  0.0107
    1DIPC   GL124531  22.914  15.936   2.450 -0.2358 -0.0561 -0.0777
    1DIPC   GL224532  23.207  16.126   2.577 -0.1204  0.0036  0.0692
    1DIPC   C1A24533  22.628  15.940   2.796 -0.2914  0.0981  0.1374
    1DIPC   D2A24534  22.533  15.775   3.209 -0.1915  0.0419 -0.0782
    1DIPC   D3A24535  22.264  15.543   2.928  0.0618 -0.4745 -0.0582
    1DIPC   C4A24536  22.060  15.213   3.115 -0.4721  0.0334 -0.2386
    1DIPC   C1B24537  23.328  16.131   2.955 -0.1717  0.0311  0.2042
    1DIPC   D2B24538  23.090  16.291   3.250 -0.0258  0.1200  0.0991
    1DIPC   D3B24539  23.342  16.313   3.620  0.3291  0.0033  0.2075
    1DIPC   C4B24540  23.703  16.111   3.517 -0.0287 -0.1335 -0.2006
    1DIPC   NC324541  28.125  28.995   3.609 -0.2621 -0.0937 -0.1267
    1DIPC   PO424542  28.096  29.299   3.797 -0.2365 -0.2736 -0.1343
    1DIPC   GL124543  28.372  29.017   4.074 -0.1461  0.1160  0.1309
    1DIPC   GL224544  28.251  28.797   4.092 -0.0589  0.0686  0.1824
    1DIPC   C1A24545  28.666  28.764   4.440 -0.1753 -0.0773 -0.1255
    1DIPC   D2A24546  28.719  28.629   4.840  0.0571 -0.2415  0.2680
    1DIPC   D3A24547  28.616  28.496   5.280 -0.1576 -0.2227  0.0073
    1DIPC   C4A24548  28.229  28.330   5.340 -0.0381 -0.1636  0.1459
    1DIPC   C1B24549  28.129  28.705   4.488  0.2305  0.1736  0.5611
    1DIPC   D2B24550  28.244  28.525   4.798  0.0175 -0.0686 -0.0079
    1DIPC   D3B24551  28.107  28.821   5.120  0.1970 -0.5147  0.0001
    1DIPC   C4B24552  27.964  28.764   5.411  0.1929  0.0903 -0.0315
    1DIPC   NC324553  22.456  27.583   2.920  0.1378 -0.1118  0.2399
    1DIPC   PO424554  22.640  27.376   3.252 -0.0694 -0.0814  0.1585
    1DIPC   GL124555  22.593  27.503   3.593  0.0549  0.0406  0.0262
    1DIPC   GL224556  22.322  27.156   3.711  0.2045  0.3069 -0.2068
    1DIPC   C1A24557  22.652  27.579   4.033 -0.3094 -0.0868  0.0658
    1DIPC   D2A24558  22.511  27.698   4.416 -0.1460  0.2878 -0.1793
    1DIPC   D3A24559  23.004  27.866   4.581  0.2749 -0.1602  0.0240
    1DIPC   C4A24560  22.909  28.328   4.645  0.1077  0.2024 -0.1044
    1DIPC   C1B24561  22.447  27.165   4.118 -0.0503  0.2649 -0.3163
    1DIPC   D2B24562  22.300  27.018   4.578 -0.2110 -0.0869 -0.2522
    1DIPC   D3B24563  22.315  27.400   4.739  0.0153  0.0262  0.1484
    1DIPC   C4B24564  22.702  27.590   4.888  0.0990 -0.0403 -0.0635
    1DIPC   NC324565   2.610  27.327   2.911  0.2628  0.2899 -0.0830
    1DIPC   PO424566   2.558  27.443   3.363  0.1875 -0.1253 -0.1278
    1DIPC   GL124567   2.351  27.312   3.702 -0.2361 -0.0254 -0.2335
    1DIPC   GL224568   2.512  27.076   3.946 -0.0425  0.0322  0.0108
    1DIPC   C1A24569   2.009  26.995   3.727  0.1821 -0.1599  0.0122
    1DIPC   D2A24570   1.641  26.829   3.839 -0.0239 -0.0272  0.0712
    1DIPC   D3A24571   1.750  26.778   4.205 -0.2190 -0.1140  0.1858
    1DIPC   C4A24572   2.084  27.051   4.317  0.1171 -0.0530 -0.2458
    1DIPC   C1B24573   2.490  27.323   4.307 -0.1918  0.3828 -0.0582
    1DIPC   D2B24574   2.181  27.627   4.511 -0.0438 -0.0470  0.2642
    1DIPC   D3B24575   2.291  27.513   4.888 -0.2208  0.0545  0.0479
    1DIPC   C4B24576   2.280  27.227   5.290 -0.0146  0.1751 -0.1110
    1DIPC   NC324577  16.970  24.198   2.227  0.5268  0.1399  0.1432
    1DIPC   PO424578  17.225  24.301   2.577 -0.2614  0.0036  0.4115
    1DIPC   GL124579  17.352  24.288   2.928  0.0339 -0.2273 -0.4155
    1DIPC   GL224580  17.053  24.504   2.961  0.0491 -0.1777 -0.0593
    1DIPC   C1A24581  17.721  24.119   3.100  0.2728 -0.2243  0.1248
    1DIPC   D2A24582  18.099  24.088   3.346  0.2773  0.0313 -0.0764
    1DIPC   D3A24583  18.356  24.323   3.170  0.2889 -0.0369 -0.1916
    1DIPC   C4A24584  18.775  24.161   3.115  0.0011 -0.1625  0.1357
    1DIPC   C1B24585  16.685  24.785   3.172 -0.2568  0.2060 -0.2532
    1DIPC   D2B24586  16.491  24.925   3.584 -0.2504  0.0302  0.0780
    1DIPC   D3B24587  16.710  24.495   3.664  0.0878 -0.0277 -0.2589
    1DIPC   C4B24588  17.032  24.302   3.371 -0.0788  0.1127  0.0644
    1DIPC   NC324589  24.403  24.384   2.924 -0.2857 -0.0212  0.1256
    1DIPC   PO424590  24.098  24.159   3.011  0.2688 -0.2155 -0.0592
    1DIPC   GL124591  24.177  24.035   3.366  0.1571  0.2868  0.0629
    1DIPC   GL224592  24.414  24.236   3.374  0.1842 -0.1206  0.0323
    1DIPC   C1A24593  24.255  24.076   3.820  0.0245 -0.1432  0.1240
    1DIPC   D2A24594  24.362  24.042   4.282  0.2811  0.1840 -0.1352
    1DIPC   D3A24595  23.940  24.235   4.354  0.2883 -0.0418 -0.1391
    1DIPC   C4A24596  23.615  24.124   4.202  0.0182  0.2701 -0.2634
    1DIPC   C1B24597  24.681  24.380   3.759  0.1262 -0.0610  0.1361
    1DIPC   D2B24598  24.805  24.270   4.118  0.1152 -0.2211  0.0480
    1DIPC   D3B24599  24.947  23.935   4.333 -0.2223 -0.0290  0.2774
    1DIPC   C4B24600  24.734  23.716   4.613 -0.0739  0.0634 -0.1002
    1DIPC   NC324601   9.643   8.330   3.007 -0.0527 -0.1234 -0.1196
    1DIPC   PO424602   9.302   8.073   3.168  0.0437 -0.1244  0.1324
    1DIPC   GL124603   9.582   8.155   3.527 -0.0852  0.1091 -0.0591
    1DIPC   GL224604   9.690   8.532   3.603 -0.0610  0.1304  0.0873
    1DIPC   C1A24605   9.479   8.296   3.955  0.3492 -0.0624 -0.1593
    1DIPC   D2A24606   9.227   8.164   4.337  0.0939 -0.1827 -0.1278
    1DIPC   D3A24607   8.900   8.285   4.134 -0.0647 -0.3807  0.1768
    1DIPC   C4A24608   8.536   8.337   4.425 -0.3080  0.0605  0.3086
    1DIPC   C1B24609   9.552   8.772   4.002  0.0232 -0.1957 -0.1887
    1DIPC   D2B24610   9.412   8.698   4.365 -0.1014  0.0861  0.1674
    1DIPC   D3B24611   9.729   8.316   4.409  0.2324  0.1770  0.0039
    1DIPC   C4B24612   9.596   7.905   4.571  0.3392 -0.1713  0.0466
    1DIPC   NC324613   1.242  29.067   3.897 -0.0175 -0.0200  0.1128
    1DIPC   PO424614   1.514  28.770   3.667 -0.3097  0.0893  0.0484
    1DIPC   GL124615   1.682  28.898   4.117 -0.0936  0.2701 -0.0777
    1DIPC   GL224616   1.706  29.220   4.050  0.0987  0.2517  0.1202
    1DIPC   C1A24617   1.464  28.658   4.433  0.1377 -0.0268  0.0418
    1DIPC   D2A24618   1.435  28.181   4.406  0.1900  0.2065  0.2718
    1DIPC   D3A24619   1.176  28.160   4.650 -0.1233 -0.2469 -0.0503
    1DIPC   C4A24620   1.395  28.087   5.036 -0.2948 -0.1685  0.0013
    1DIPC   C1B24621   1.675  29.500   4.300  0.3640 -0.1434 -0.1927
    1DIPC   D2B24622   1.278  29.706   4.472  0.1582 -0.3911 -0.1591
    1DIPC   D3B24623   1.252  29.323   4.374 -0.2088 -0.1535 -0.2397
    1DIPC   C4B24624   1.243  29.043   4.782  0.1538  0.0939 -0.2627
    1DIPC   NC324625  18.475  13.722   2.510  0.1622  0.0225 -0.0669
    1DIPC   PO424626  18.647  14.138   2.692  0.0268 -0.0550  0.0510
    1DIPC   GL124627  18.899  14.402   3.012  0.1927  0.0810  0.0948
    1DIPC   GL224628  19.109  14.621   3.237  0.1436 -0.0799  0.1272
    1DIPC   C1A24629  18.641  14.796   3.230 -0.0482 -0.2117  0.2244
    1DIPC   D2A24630  18.568  15.114   3.460 -0.1050 -0.1455  0.1716
    1DIPC   D3A24631  18.719  14.892   3.938  0.0900  0.4275 -0.2419
    1DIPC   C4A24632  19.191  14.798   4.043 -0.0138  0.0473 -0.0572
    1DIPC   C1B24633  18.926  14.522   3.657  0.0262  0.0776  0.0901
    1DIPC   D2B24634  18.857  14.398   4.134  0.1384 -0.0918 -0.1430
    1DIPC   D3B24635  19.169  14.503   4.472 -0.0950 -0.0500 -0.0587
    1DIPC   C4B24636  19.406  14.363   4.809 -0.2529 -0.2840 -0.0630
    1DIPC   NC324637  11.229  29.973   3.530  0.0023 -0.0104  0.0950
    1DIPC   PO424638  10.712  29.939   3.308 -0.2689 -0.0659 -0.0230
    1DIPC   GL124639  10.822  30.101   3.842 -0.1175 -0.2252 -0.0942
    1DIPC   GL224640  10.431  30.021   3.818 -0.1697  0.2059  0.0310
    1DIPC   C1A24641  11.042  30.138   4.219 -0.1403 -0.3087 -0.0714
    1DIPC   D2A24642  10.944  30.331   4.612  0.0991  0.0849  0.4244
    1DIPC   D3A24643  11.085   0.011   4.978 -0.0638 -0.1064  0.0220
    1DIPC   C4A24644  10.901   0.293   5.271 -0.0959  0.2324 -0.3064
    1DIPC   C1B24645  10.387  29.958   4.288 -0.2814  0.0741 -0.1718
    1DIPC   D2B24646  10.663  29.725   4.526 -0.3796  0.0832  0.0073
    1DIPC   D3B24647  10.813  29.690   4.181 -0.1238 -0.1849 -0.1096
    1DIPC   C4B24648  11.265  29.599   4.127  0.1963  0.0505 -0.2199
    1DIPC   NC324649  11.730  24.703   2.424  0.0465 -0.1722  0.2783
    1DIPC   PO424650  11.595  24.977   2.758 -0.0284  0.0211  0.2126
    1DIPC   GL124651  11.704  24.601   2.999 -0.1173 -0.2444  0.1701
    1DIPC   GL224652  11.367  24.522   3.106  0.0368  0.2528  0.1773
    1DIPC   C1A24653  11.743  24.282   3.301 -0.1342 -0.1875  0.2081
    1DIPC   D2A24654  11.568  24.034   3.623  0.2179 -0.0398 -0.3101
    1DIPC   D3A24655  11.962  24.106   3.677 -0.3039  0.0197  0.3593
    1DIPC   C4A24656  12.352  23.989   3.447  0.0478 -0.0857 -0.2261
    1DIPC   C1B24657  11.188  24.396   3.378 -0.1518 -0.0024  0.1360
    1DIPC   D2B24658  11.069  24.638   3.723  0.0559 -0.0169  0.1867
    1DIPC   D3B24659  11.292  24.445   4.116  0.2239  0.0137  0.4001
    1DIPC   C4B24660  11.661  24.150   4.100 -0.1928 -0.1735  0.1386
    1DIPC   NC324661  13.588  27.485   2.715  0.2947 -0.1528 -0.2583
    1DIPC   PO424662  13.614  27.600   3.127  0.1040 -0.0147  0.0233
    1DIPC   GL124663  13.444  27.748   3.598 -0.1913 -0.2150  0.1511
    1DIPC   GL224664  13.406  27.546   3.815  0.0852  0.0359  0.4034
    1DIPC   C1A24665  13.363  28.113   3.874  0.1448  0.0280 -0.0227
    1DIPC   D2A24666  13.358  28.128   4.297  0.0399 -0.1433  0.0436
    1DIPC   D3A24667  13.606  28.406   4.594 -0.0291 -0.3154  0.0656
    1DIPC   C4A24668  14.072  28.344   4.486 -0.1826  0.2130 -0.1301
    1DIPC   C1B24669  13.106  27.407   4.187  0.2620 -0.0786 -0.1274
    1DIPC   D2B24670  13.250  27.648   4.556  0.0350 -0.0166  0.0158
    1DIPC   D3B24671  13.550  27.434   4.554 -0.4458 -0.0287 -0.1216
    1DIPC   C4B24672  13.937  27.361   4.702  0.1197 -0.2520 -0.2872
    1DIPC   NC324673  26.286  25.906   3.134 -0.5042 -0.0946 -0.0088
    1DIPC   PO424674  25.955  26.253   3.304 -0.0052  0.2286  0.2656
    1DIPC   GL124675  26.280  26.135   3.661 -0.0601 -0.0992  0.1338
    1DIPC   GL224676  26.442  25.830   3.696 -0.1824 -0.3190  0.0232
    1DIPC   C1A24677  26.594  26.048   4.112  0.0061  0.0057 -0.0702
    1DIPC   D2A24678  27.085  26.005   4.271 -0.1595  0.0834 -0.2056
    1DIPC   D3A24679  27.273  25.899   4.654 -0.1289  0.0707  0.0050
    1DIPC   C4A24680  27.581  25.590   4.605 -0.0659 -0.0470  0.0969
    1DIPC   C1B24681  26.057  25.860   4.120 -0.0545 -0.1659  0.1220
    1DIPC   D2B24682  25.913  25.731   4.519 -0.0598 -0.0974  0.0598
    1DIPC   D3B24683  25.529  25.597   4.609  0.0838  0.1256  0.0689
    1DIPC   C4B24684  25.237  25.881   4.579  0.0047 -0.0069  0.2175
    1DIPC   NC324685  13.890  10.521   2.888 -0.0432 -0.1059 -0.0659
    1DIPC   PO424686  14.264  10.355   2.869 -0.1048 -0.2634  0.4634
    1DIPC   GL124687  14.257  10.199   3.312 -0.0396 -0.0211  0.0210
    1DIPC   GL224688  14.539  10.151   3.503 -0.2345  0.0197 -0.0113
    1DIPC   C1A24689  14.051   9.856   3.529  0.1808  0.0287 -0.2318
    1DIPC   D2A24690  14.217   9.577   3.848  0.2283  0.1104  0.1655
    1DIPC   D3A24691  14.617   9.534   4.243 -0.0663  0.1377  0.0830
    1DIPC   C4A24692  14.707   9.173   4.424 -0.3176  0.0438  0.2702
    1DIPC   C1B24693  14.386  10.124   3.933 -0.3023  0.0032  0.0923
    1DIPC   D2B24694  14.047  10.184   4.284 -0.1440 -0.0139  0.2886
    1DIPC   D3B24695  14.409   9.961   4.460 -0.2856  0.1935 -0.0396
    1DIPC   C4B24696  14.537   9.576   4.694 -0.0670  0.1173 -0.1011
    1DIPC   NC324697  16.893  18.585   2.585 -0.0923  0.2755 -0.1342
    1DIPC   PO424698  16.546  18.569   2.429 -0.0121  0.0416  0.0388
    1DIPC   GL124699  16.534  18.549   2.925 -0.1325  0.0489  0.1198
    1DIPC   GL224700  16.349  18.686   3.211 -0.1906  0.0580 -0.0416
    1DIPC   C1A24701  16.771  18.408   3.251  0.2165  0.1399 -0.1226
    1DIPC   D2A24702  16.962  18.357   3.718 -0.2236  0.0954  0.2023
    1DIPC   D3A24703  17.179  18.694   3.653 -0.0061  0.3960 -0.0945
    1DIPC   C4A24704  17.574  18.743   3.726  0.0252  0.1115 -0.0516
    1DIPC   C1B24705  16.701  18.766   3.613  0.0216  0.1199  0.0656
    1DIPC   D2B24706  16.865  18.917   3.981 -0.0416 -0.3471 -0.0389
    1DIPC   D3B24707  16.972  18.591   4.226  0.1505  0.0152  0.0126
    1DIPC   C4B24708  17.290  18.303   4.060  0.0769 -0.0603  0.2705
    1DIPC   NC324709   9.355   9.233   2.458 -0.0692 -0.2965 -0.1119
    1DIPC   PO424710   9.516   9.243   2.991  0.5110 -0.0289  0.1134
    1DIPC   GL124711   9.503   9.048   3.320 -0.2314 -0.0651  0.1741
    1DIPC   GL224712   9.672   9.138   3.571  0.0161 -0.1780  0.0682
    1DIPC   C1A24713   9.144   8.906   3.600 -0.0407  0.1503  0.0131
    1DIPC   D2A24714   9.150   8.629   3.883  0.0463 -0.3256  0.2372
    1DIPC   D3A24715   8.965   8.985   4.187 -0.0484 -0.0097 -0.1390
    1DIPC   C4A24716   8.613   8.810   4.317  0.3500 -0.0314  0.3096
    1DIPC   C1B24717   9.436   9.246   3.925  0.0077  0.0290 -0.2023
    1DIPC   D2B24718   9.183   9.610   4.128 -0.1336  0.2174  0.2797
    1DIPC   D3B24719   8.886   9.444   4.458 -0.0919 -0.1731 -0.1478
    1DIPC   C4B24720   8.853   9.738   4.844 -0.2561 -0.2384  0.1147
    1DIPC   NC324721  10.169   7.667   2.692 -0.2108  0.2041 -0.0389
    1DIPC   PO424722   9.942   8.026   2.636  0.1106  0.1556  0.2540
    1DIPC   GL124723  10.145   8.198   3.029 -0.1000 -0.2418  0.0504
    1DIPC   GL224724  10.198   7.929   3.124  0.1483  0.1226  0.3801
    1DIPC   C1A24725  10.145   8.223   3.542 -0.0941 -0.1352  0.1699
    1DIPC   D2A24726  10.391   8.366   3.793 -0.3656 -0.1458  0.2175
    1DIPC   D3A24727  10.611   7.977   3.914 -0.4450  0.0355 -0.1049
    1DIPC   C4A24728  10.919   7.692   3.713  0.0691 -0.1364  0.3398
    1DIPC   C1B24729  10.328   7.740   3.548  0.1245  0.1765 -0.0128
    1DIPC   D2B24730  10.288   7.414   3.856 -0.1077  0.1710 -0.1757
    1DIPC   D3B24731  10.398   7.574   4.335 -0.1506 -0.1097  0.1425
    1DIPC   C4B24732  10.223   7.306   4.669 -0.0230  0.0230  0.2055
    1DIPC   NC324733  19.359  27.604   2.810 -0.1616 -0.1589 -0.1233
    1DIPC   PO424734  19.550  27.720   3.245  0.1010 -0.1647  0.0305
    1DIPC   GL124735  19.626  27.846   3.638 -0.0817 -0.0346  0.1275
    1DIPC   GL224736  19.954  28.068   3.772  0.0399  0.0208  0.2187
    1DIPC   C1A24737  19.502  28.030   4.053 -0.0167 -0.0866  0.1367
    1DIPC   D2A24738  19.438  27.850   4.352 -0.0525  0.2146 -0.0534
    1DIPC   D3A24739  19.795  27.877   4.681  0.2739  0.2643 -0.0470
    1DIPC   C4A24740  19.765  28.226   4.980  0.0237  0.2024 -0.2603
    1DIPC   C1B24741  20.279  27.883   3.733 -0.2684 -0.2134  0.0915
    1DIPC   D2B24742  20.677  27.864   3.970 -0.2248  0.2379  0.0471
    1DIPC   D3B24743  20.742  27.405   3.966  0.0620  0.1258 -0.1816
    1DIPC   C4B24744  21.060  27.276   4.341 -0.2423  0.0906 -0.2536
    1DIPC   NC324745  22.422   4.238   3.534  0.1556 -0.0486  0.1077
    1DIPC   PO424746  22.073   4.026   3.383 -0.3196  0.2371 -0.1894
    1DIPC   GL124747  21.981   3.959   3.783  0.0980  0.0606 -0.2690
    1DIPC   GL224748  21.912   3.724   3.934  0.3081 -0.1754  0.1021
    1DIPC   C1A24749  21.598   4.051   4.038 -0.0118 -0.0017  0.0891
    1DIPC   D2A24750  21.327   4.437   4.026 -0.0628 -0.1280 -0.0712
    1DIPC   D3A24751  20.919   4.341   4.154 -0.0452 -0.1477 -0.0679
    1DIPC   C4A24752  20.636   4.633   3.932 -0.0328  0.1742 -0.2608
    1DIPC   C1B24753  21.998   3.522   4.329  0.2843 -0.0718  0.2342
    1DIPC   D2B24754  21.906   3.351   4.694 -0.1819  0.1797  0.2250
    1DIPC   D3B24755  22.142   3.350   5.065 -0.0130  0.0391 -0.2814
    1DIPC   C4B24756  22.226   3.032   5.423 -0.0463 -0.1703 -0.0747
    1DIPC   NC324757  15.955   2.665   2.656 -0.2178  0.1182 -0.0458
    1DIPC   PO424758  15.964   3.028   2.788 -0.1143  0.1977 -0.2709
    1DIPC   GL124759  16.006   2.845   3.154 -0.1458  0.0059  0.2719
    1DIPC   GL224760  16.154   2.943   3.382 -0.1042 -0.1665  0.1563
    1DIPC   C1A24761  15.590   2.577   3.415 -0.2317 -0.2522 -0.0306
    1DIPC   D2A24762  15.273   2.189   3.531  0.0364  0.2283 -0.4728
    1DIPC   D3A24763  15.592   2.100   3.790 -0.0097  0.0739  0.0078
    1DIPC   C4A24764  15.713   1.992   4.284  0.0102  0.1022 -0.0910
    1DIPC   C1B24765  16.022   2.605   3.662 -0.2385  0.0423 -0.1165
    1DIPC   D2B24766  15.860   2.476   4.102 -0.1187 -0.0165  0.0870
    1DIPC   D3B24767  15.664   2.668   4.494  0.4571 -0.0597  0.1588
    1DIPC   C4B24768  15.242   2.968   4.439  0.2343  0.0969 -0.0222
    1DIPC   NC324769   0.216   7.821   2.582  0.4092 -0.4334  0.0368
    1DIPC   PO424770  30.249   7.830   2.855  0.1291 -0.1248  0.0155
    1DIPC   GL124771   0.045   7.998   3.226  0.1305 -0.3006  0.1805
    1DIPC   GL224772  30.242   7.875   3.509 -0.3863 -0.1605  0.4787
    1DIPC   C1A24773   0.333   8.043   3.567 -0.2339  0.2276  0.0089
    1DIPC   D2A24774   0.293   8.120   4.081 -0.1602 -0.0553  0.0048
    1DIPC   D3A24775  30.320   8.137   4.332 -0.1038 -0.3114  0.0206
    1DIPC   C4A24776  30.183   8.463   4.601 -0.0526 -0.1800 -0.0345
    1DIPC   C1B24777  30.261   7.728   3.943 -0.0099  0.3855 -0.1121
    1DIPC   D2B24778   0.137   7.675   4.331 -0.0963 -0.0378  0.0430
    1DIPC   D3B24779   0.335   7.820   4.652 -0.0690  0.1782  0.0754
    1DIPC   C4B24780   0.362   8.313   4.805 -0.1981 -0.1095  0.2565
    1DIPC   NC324781  25.324   0.820   2.751  0.0485  0.1457 -0.0051
    1DIPC   PO424782  24.947   1.161   2.918  0.0420  0.3249 -0.2862
    1DIPC   GL124783  25.038   1.209   3.411  0.1368  0.1339 -0.1310
    1DIPC   GL224784  24.605   1.146   3.505  0.3135  0.2320 -0.1843
    1DIPC   C1A24785  25.168   0.992   3.750 -0.1231  0.1806 -0.1207
    1DIPC   D2A24786  25.078   0.631   3.946 -0.0454 -0.1827 -0.1038
    1DIPC   D3A24787  25.378   0.563   4.344  0.1060 -0.1796  0.0975
    1DIPC   C4A24788  25.265   0.736   4.701 -0.0581 -0.2561  0.2266
    1DIPC   C1B24789  24.560   0.809   3.759  0.0591  0.0504  0.2222
    1DIPC   D2B24790  24.403   0.417   3.677 -0.2430  0.0248  0.0500
    1DIPC   D3B24791  24.450   0.462   4.204  0.5982 -0.2195  0.1355
    1DIPC   C4B24792  24.751   0.589   4.298 -0.1022  0.1009 -0.4141
    1DIPC   NC324793  14.427  11.100   3.380  0.0518 -0.2759 -0.1414
    1DIPC   PO424794  14.153  11.370   3.425 -0.0180  0.1918 -0.2129
    1DIPC   GL124795  14.073  11.476   3.905 -0.1701  0.0268  0.0667
    1DIPC   GL224796  13.601  11.605   3.950  0.0779 -0.1330  0.1691
    1DIPC   C1A24797  13.983  11.718   4.362  0.2959  0.2315  0.1372
    1DIPC   D2A24798  13.885  11.882   4.775  0.0910 -0.2499  0.0503
    1DIPC   D3A24799  14.335  12.166   4.915  0.3391 -0.0892  0.2713
    1DIPC   C4A24800  14.562  11.958   5.164 -0.2502  0.1723  0.1657
    1DIPC   C1B24801  13.541  11.899   4.383  0.4101 -0.0453  0.1366
    1DIPC   D2B24802  13.317  11.857   4.701  0.0379  0.0357 -0.0967
    1DIPC   D3B24803  13.148  12.066   5.059  0.2668  0.1446 -0.1579
    1DIPC   C4B24804  13.052  12.511   5.101 -0.2047 -0.1823 -0.1409
    1DIPC   NC324805  15.669  10.565   2.790 -0.0718  0.0727 -0.0140
    1DIPC   PO424806  15.262  10.359   2.763  0.2010  0.2352 -0.1968
    1DIPC   GL124807  15.357  10.375   3.172  0.2969  0.1382 -0.0113
    1DIPC   GL224808  15.004  10.285   3.170 -0.2542  0.2202 -0.0996
    1DIPC   C1A24809  15.172  10.320   3.635 -0.4618 -0.4766  0.3741
    1DIPC   D2A24810  15.235  10.202   4.117 -0.0528 -0.0781  0.1846
    1DIPC   D3A24811  15.260  10.662   4.239 -0.1440  0.0169  0.0637
    1DIPC   C4A24812  15.555  10.845   4.527 -0.3482  0.0632  0.0500
    1DIPC   C1B24813  14.891   9.893   3.358 -0.0094  0.0385  0.0139
    1DIPC   D2B24814  14.669   9.697   3.635  0.0140 -0.0481  0.2416
    1DIPC   D3B24815  14.825   9.959   3.949 -0.0177 -0.0739 -0.1263
    1DIPC   C4B24816  14.983   9.850   4.357 -0.0319  0.1030  0.0932
    1DIPC   NC324817  30.019  28.430   3.766 -0.2367 -0.2276  0.5054
    1DIPC   PO424818  30.181  28.749   3.709  0.2278  0.0764 -0.2816
    1DIPC   GL124819  29.959  28.930   3.990  0.2560  0.0773  0.1265
    1DIPC   GL224820  29.759  28.804   4.040 -0.1539 -0.1311 -0.4952
    1DIPC   C1A24821  29.888  29.169   4.288 -0.1894  0.0909  0.0557
    1DIPC   D2A24822  29.804  29.363   4.704 -0.2878 -0.0745 -0.3646
    1DIPC   D3A24823  29.512  29.638   4.897  0.2775  0.1847  0.3263
    1DIPC   C4A24824  29.343  29.375   5.146 -0.1970 -0.0523  0.3761
    1DIPC   C1B24825  29.687  28.815   4.548 -0.1257  0.2175  0.3033
    1DIPC   D2B24826  29.901  28.818   4.853 -0.1187 -0.1070 -0.2131
    1DIPC   D3B24827  30.201  29.140   4.906 -0.3877  0.2069 -0.1225
    1DIPC   C4B24828   0.086  29.198   4.521  0.1043  0.2863 -0.1667
    1DIPC   NC324829  14.575  13.974   3.408 -0.2509  0.1303  0.2425
    1DIPC   PO424830  14.743  13.996   3.774  0.0747  0.1284  0.1469
    1DIPC   GL124831  14.494  14.241   4.148 -0.1194  0.0326  0.1790
    1DIPC   GL224832  14.370  14.545   4.053  0.0704  0.1456  0.1591
    1DIPC   C1A24833  14.389  14.077   4.581 -0.1942 -0.1006  0.2353
    1DIPC   D2A24834  14.091  14.009   4.965 -0.1918 -0.2003  0.1004
    1DIPC   D3A24835  14.487  13.893   5.106 -0.0392 -0.1105  0.0069
    1DIPC   C4A24836  14.789  14.081   5.317 -0.3655 -0.0908  0.0120
    1DIPC   C1B24837  14.535  14.635   4.537 -0.1522 -0.2019 -0.1252
    1DIPC   D2B24838  14.720  14.964   4.731  0.1882 -0.2846 -0.0088
    1DIPC   D3B24839  14.263  14.858   4.951 -0.0938 -0.1625 -0.3903
    1DIPC   C4B24840  14.198  14.461   4.927  0.0596 -0.3790  0.2773
    1DIPC   NC324841  28.513   5.568   3.149 -0.0443  0.0742 -0.2584
    1DIPC   PO424842  28.465   5.940   3.157 -0.1652  0.1129 -0.2114
    1DIPC   GL124843  28.480   6.068   3.554  0.0190  0.0667 -0.0875
    1DIPC   GL224844  28.358   6.455   3.546  0.2216 -0.2283 -0.0986
    1DIPC   C1A24845  28.614   6.097   4.127  0.0595  0.1275 -0.2221
    1DIPC   D2A24846  28.767   6.180   4.586  0.4321  0.4781  0.0900
    1DIPC   D3A24847  28.946   5.790   4.438 -0.0658  0.1619 -0.0971
    1DIPC   C4A24848  29.232   5.431   4.656 -0.1611  0.0067  0.0782
    1DIPC   C1B24849  28.323   6.657   3.946  0.1997  0.0839  0.2718
    1DIPC   D2B24850  28.473   6.913   4.190  0.1059  0.1602  0.0357
    1DIPC   D3B24851  28.657   6.582   4.227  0.1845  0.0561 -0.2854
    1DIPC   C4B24852  29.085   6.420   4.295  0.0432  0.0787 -0.0803
    1DIPC   NC324853   0.288   6.534   2.590 -0.0288  0.2023 -0.0566
    1DIPC   PO424854   0.624   6.583   2.806 -0.2964 -0.5503  0.4194
    1DIPC   GL124855   0.746   6.438   3.272 -0.0535  0.3533  0.1248
    1DIPC   GL224856   0.528   6.234   3.326 -0.3193  0.1292 -0.3397
    1DIPC   C1A24857   0.937   6.381   3.719 -0.1034 -0.2917 -0.3481
    1DIPC   D2A24858   1.254   6.154   3.836  0.1707 -0.0578  0.0270
    1DIPC   D3A24859   1.191   6.339   4.290 -0.3145 -0.1524 -0.0573
    1DIPC   C4A24860   1.455   6.494   4.652 -0.3171 -0.0520  0.0481
    1DIPC   C1B24861   0.417   6.343   3.740 -0.1735  0.1293 -0.0322
    1DIPC   D2B24862   0.388   6.560   4.104  0.2098  0.1588  0.2809
    1DIPC   D3B24863   0.198   6.904   4.292 -0.1276 -0.0556  0.3838
    1DIPC   C4B24864   0.490   7.307   4.328  0.0166  0.1275 -0.0919
    1DIPC   NC324865  14.195  25.762   2.529  0.2505 -0.3293  0.1117
    1DIPC   PO424866  14.033  25.997   3.012  0.0903  0.2503 -0.2378
    1DIPC   GL124867  13.972  25.874   3.379  0.0580  0.3096  0.2081
    1DIPC   GL224868  13.675  25.931   3.353  0.0890  0.1202  0.1296
    1DIPC   C1A24869  14.085  25.811   3.851 -0.2388  0.1902 -0.2169
    1DIPC   D2A24870  14.264  25.807   4.248 -0.1669 -0.0517 -0.0459
    1DIPC   D3A24871  14.796  25.799   4.201 -0.1218  0.1438 -0.0628
    1DIPC   C4A24872  14.954  25.322   4.124 -0.0905  0.0138 -0.0518
    1DIPC   C1B24873  13.605  25.874   3.834  0.2077 -0.1405  0.3599
    1DIPC   D2B24874  13.744  25.756   4.288 -0.1689 -0.0731 -0.0361
    1DIPC   D3B24875  13.360  25.468   4.342 -0.1983 -0.0746 -0.0520
    1DIPC   C4B24876  13.412  25.071   4.511  0.0323 -0.0751  0.1493
    1DIPC   NC324877  10.830  11.135   3.365 -0.1236  0.0852  0.0487
    1DIPC   PO424878  10.462  11.475   3.332  0.0643 -0.3436 -0.0810
    1DIPC   GL124879  10.436  11.305   3.695 -0.0120  0.1051 -0.0536
    1DIPC   GL224880  10.481  11.394   4.047 -0.0705  0.0339  0.0377
    1DIPC   C1A24881  10.379  10.896   3.942  0.3201  0.4450 -0.1075
    1DIPC   D2A24882  10.369  10.531   4.225  0.3323  0.1328 -0.0965
    1DIPC   D3A24883   9.999  10.676   4.495  0.2134  0.2984 -0.2171
    1DIPC   C4A24884  10.156  10.489   4.843 -0.1734 -0.0337  0.2230
    1DIPC   C1B24885  10.627  11.576   4.459 -0.4407  0.0800  0.0949
    1DIPC   D2B24886  10.543  11.387   4.802 -0.0808  0.0935 -0.0182
    1DIPC   D3B24887  10.261  11.694   4.923  0.0935  0.4108 -0.1202
    1DIPC   C4B24888  10.232  12.034   5.182  0.0873  0.0616 -0.1162
    1DIPC   NC324889   9.523  18.345   2.233 -0.0012  0.3388 -0.1964
    1DIPC   PO424890   9.771  18.007   2.394 -0.0691 -0.2034 -0.3481
    1DIPC   GL124891   9.569  18.133   2.744 -0.1060 -0.3571  0.1987
    1DIPC   GL224892   9.791  18.303   2.974 -0.1519 -0.1209 -0.1760
    1DIPC   C1A24893   9.332  18.154   3.157 -0.1484  0.0346 -0.2271
    1DIPC   D2A24894   9.282  18.131   3.566  0.0315  0.1630 -0.4385
    1DIPC   D3A24895   9.657  17.809   3.609  0.1060 -0.0574 -0.0117
    1DIPC   C4A24896   9.621  17.494   3.777  0.1561  0.3613 -0.2950
    1DIPC   C1B24897   9.788  18.252   3.374  0.0746 -0.2873  0.2059
    1DIPC   D2B24898   9.687  18.310   3.851 -0.2651  0.0231  0.0485
    1DIPC   D3B24899   9.474  18.054   4.114  0.0472 -0.2311 -0.2967
    1DIPC   C4B24900   9.268  17.680   4.001  0.1335  0.0608 -0.0391
    1DIPC   NC324901  25.439   7.993   2.175  0.1548  0.0125  0.1117
    1DIPC   PO424902  25.521   8.135   2.629  0.0384 -0.0561  0.0941
    1DIPC   GL124903  25.490   8.009   3.026  0.1898 -0.1268  0.1535
    1DIPC   GL224904  25.517   8.110   3.373 -0.1676  0.1092  0.0581
    1DIPC   C1A24905  25.139   7.745   3.295  0.1127 -0.0529  0.1222
    1DIPC   D2A24906  24.754   7.705   3.458 -0.0782  0.2700 -0.0447
    1DIPC   D3A24907  24.483   8.020   3.203  0.1987 -0.3319  0.2628
    1DIPC   C4A24908  24.062   8.028   3.412 -0.1397  0.4558  0.0965
    1DIPC   C1B24909  25.652   8.257   3.824  0.0386  0.2663 -0.0726
    1DIPC   D2B24910  25.922   8.266   4.177 -0.1036 -0.0546  0.1013
    1DIPC   D3B24911  25.822   8.643   4.440  0.1536 -0.1995  0.2100
    1DIPC   C4B24912  25.441   8.569   4.660 -0.1803 -0.1266  0.1037
    1DIPC   NC324913   3.575  25.293   2.940 -0.1593  0.1584 -0.0156
    1DIPC   PO424914   3.187  25.477   3.042  0.3747 -0.0246  0.1918
    1DIPC   GL124915   3.224  25.223   3.324 -0.1468  0.1176 -0.0938
    1DIPC   GL224916   3.491  25.192   3.412 -0.0074  0.1717 -0.4379
    1DIPC   C1A24917   3.177  24.729   3.602 -0.2443 -0.1317  0.1547
    1DIPC   D2A24918   3.486  24.382   3.649  0.0080  0.1192  0.1231
    1DIPC   D3A24919   3.714  24.665   3.544  0.0824 -0.0698 -0.3245
    1DIPC   C4A24920   3.965  25.026   3.631 -0.1726  0.2020 -0.0347
    1DIPC   C1B24921   3.121  25.176   3.778 -0.1704 -0.0458  0.1616
    1DIPC   D2B24922   2.966  25.516   3.963  0.0257 -0.1215  0.0260
    1DIPC   D3B24923   3.174  25.900   3.935 -0.1729 -0.1125  0.3005
    1DIPC   C4B24924   3.260  26.036   4.322  0.0905 -0.1125  0.0709
    1DIPC   NC324925  18.746  23.577   2.510 -0.2013  0.2282  0.0587
    1DIPC   PO424926  18.878  23.984   2.552  0.0173  0.1518 -0.1950
    1DIPC   GL124927  19.092  23.793   2.834 -0.0874 -0.0472 -0.0232
    1DIPC   GL224928  19.245  24.038   3.019 -0.1715 -0.1358  0.0649
    1DIPC   C1A24929  19.050  23.631   3.285  0.0864  0.0039  0.0334
    1DIPC   D2A24930  18.803  23.499   3.619 -0.1163  0.1309  0.4623
    1DIPC   D3A24931  18.791  23.870   3.923 -0.0891 -0.2284 -0.0439
    1DIPC   C4A24932  18.848  23.871   4.318 -0.3153  0.1150 -0.0686
    1DIPC   C1B24933  19.194  24.138   3.471  0.0436  0.3996  0.0145
    1DIPC   D2B24934  19.269  24.012   3.875  0.2673  0.0057  0.0704
    1DIPC   D3B24935  19.335  24.229   4.188 -0.0056 -0.0331  0.2477
    1DIPC   C4B24936  19.391  24.649   4.427 -0.4284  0.2774  0.2204
    1DIPC   NC324937  17.407  26.865   2.727 -0.0227 -0.0526 -0.0184
    1DIPC   PO424938  17.490  27.180   3.100 -0.0940 -0.1110  0.1313
    1DIPC   GL124939  17.691  27.198   3.520 -0.3612 -0.1143  0.0549
    1DIPC   GL224940  17.733  26.821   3.599  0.2779  0.1812  0.3270
    1DIPC   C1A24941  17.733  27.055   4.037  0.0095  0.4104  0.0250
    1DIPC   D2A24942  18.035  26.929   4.329  0.0018  0.0664  0.0161
    1DIPC   D3A24943  18.118  27.315   4.489  0.2651 -0.0148 -0.0928
    1DIPC   C4A24944  18.140  27.809   4.530  0.1682 -0.1506  0.1676
    1DIPC   C1B24945  18.127  26.817   3.827 -0.0213 -0.1450 -0.0575
    1DIPC   D2B24946  18.206  26.511   4.285 -0.0754 -0.0587  0.1355
    1DIPC   D3B24947  17.875  26.215   4.387  0.1935 -0.2717 -0.3973
    1DIPC   C4B24948  17.775  26.064   4.719  0.0697  0.0486  0.0948
    1DIPC   NC324949  10.839  20.614   1.888  0.4907  0.0759  0.1598
    1DIPC   PO424950  10.791  20.259   2.160  0.0657  0.0884  0.1334
    1DIPC   GL124951  10.703  20.210   2.621 -0.1501  0.1243  0.0701
    1DIPC   GL224952  10.477  20.045   2.804 -0.4922 -0.0150 -0.0445
    1DIPC   C1A24953  10.649  20.401   3.057 -0.2856  0.0130 -0.1610
    1DIPC   D2A24954  10.481  20.724   3.391 -0.0050 -0.0829  0.4388
    1DIPC   D3A24955  10.451  20.498   3.760 -0.0795  0.3077  0.1365
    1DIPC   C4A24956  10.570  20.062   3.778 -0.1255 -0.0087  0.0692
    1DIPC   C1B24957  10.522  19.903   3.227  0.0524  0.0170 -0.0261
    1DIPC   D2B24958  10.405  19.596   3.628  0.0517  0.0788 -0.0933
    1DIPC   D3B24959  10.506  19.119   3.590  0.1305 -0.4124 -0.2409
    1DIPC   C4B24960  10.345  18.906   3.926 -0.0900  0.0417  0.1563
    1DIPC   NC324961   0.306  28.839   3.655 -0.2116  0.1685  0.2180
    1DIPC   PO424962   0.796  28.970   3.746 -0.0244 -0.1441 -0.0683
    1DIPC   GL124963   0.605  28.947   4.089  0.1702 -0.1060  0.0864
    1DIPC   GL224964   0.613  28.612   4.166  0.2243 -0.0381  0.3489
    1DIPC   C1A24965   0.664  29.096   4.496 -0.0189 -0.1861  0.1600
    1DIPC   D2A24966   0.428  29.160   4.832 -0.0223  0.2478 -0.1612
    1DIPC   D3A24967   0.228  29.086   5.254  0.0464  0.1816  0.0012
    1DIPC   C4A24968  30.282  29.393   5.428 -0.0987 -0.2455  0.2120
    1DIPC   C1B24969   0.301  28.671   4.521  0.0217 -0.1844 -0.0762
    1DIPC   D2B24970   0.066  28.651   4.971 -0.2418 -0.1355  0.1666
    1DIPC   D3B24971   0.146  28.462   5.290  0.0458  0.0017  0.0614
    1DIPC   C4B24972   0.357  28.038   5.252 -0.0505 -0.1675  0.2070
    1DIPC   NC324973   4.873  27.936   3.194 -0.0392 -0.2805  0.0227
    1DIPC   PO424974   5.280  28.178   3.130 -0.4170  0.6192  0.1720
    1DIPC   GL124975   5.368  28.143   3.475 -0.4120  0.1555 -0.1385
    1DIPC   GL224976   5.091  27.843   3.687  0.2710 -0.0444 -0.2949
    1DIPC   C1A24977   5.324  28.335   3.879 -0.0507  0.0205 -0.1756
    1DIPC   D2A24978   5.204  28.513   4.243  0.4070  0.1877 -0.0045
    1DIPC   D3A24979   5.575  28.791   4.484 -0.0311  0.0997  0.3759
    1DIPC   C4A24980   5.460  29.190   4.737  0.0445 -0.1392  0.2363
    1DIPC   C1B24981   5.249  27.809   4.112 -0.0338  0.3392  0.1210
    1DIPC   D2B24982   5.366  28.088   4.439 -0.1754 -0.0020 -0.1726
    1DIPC   D3B24983   5.224  27.768   4.692  0.2057  0.1079  0.1186
    1DIPC   C4B24984   4.825  27.833   4.861 -0.0600 -0.1510  0.1297
    1DIPC   NC324985  11.277  16.437   2.919 -0.0010 -0.2614 -0.0506
    1DIPC   PO424986  11.044  16.800   3.118 -0.0410  0.0629  0.1935
    1DIPC   GL124987  10.964  16.682   3.550  0.0061  0.0138 -0.0366
    1DIPC   GL224988  11.194  16.728   3.795  0.0946 -0.1930  0.3376
    1DIPC   C1A24989  10.675  16.888   3.772 -0.1356  0.2630  0.3567
    1DIPC   D2A24990  10.401  16.819   4.112  0.0768 -0.1533 -0.0414
    1DIPC   D3A24991  10.005  17.020   4.237 -0.0050 -0.0740  0.0738
    1DIPC   C4A24992   9.760  16.939   4.590 -0.1256 -0.2116 -0.1872
    1DIPC   C1B24993  11.168  16.879   4.099  0.2513  0.1240 -0.0819
    1DIPC   D2B24994  10.822  16.731   4.481 -0.1756 -0.0826  0.0707
    1DIPC   D3B24995  10.704  16.742   4.991  0.0504  0.0407 -0.0046
    1DIPC   C4B24996  10.701  17.138   5.023  0.3150 -0.0634 -0.2297
    1DIPC   NC324997   3.936  29.289   3.612 -0.0429  0.2058  0.0418
    1DIPC   PO424998   4.120  28.913   3.656 -0.1808  0.1644  0.2054
    1DIPC   GL124999   4.205  28.661   4.023  0.1345  0.1372  0.0754
    1DIPC   GL225000   3.919  28.613   4.097 -0.2520  0.1560 -0.0348
    1DIPC   C1A25001   4.224  28.674   4.487 -0.2128  0.3842  0.1269
    1DIPC   D2A25002   4.030  28.607   4.904  0.0385  0.0909  0.1772
    1DIPC   D3A25003   3.903  28.165   5.003 -0.1646 -0.1094 -0.1232
    1DIPC   C4A25004   4.155  28.000   5.335 -0.1855  0.1323  0.2787
    1DIPC   C1B25005   3.818  28.344   4.490  0.2619 -0.3430 -0.1236
    1DIPC   D2B25006   3.504  28.464   4.805  0.0119  0.1962  0.2792
    1DIPC   D3B25007   3.295  28.708   4.639 -0.0543 -0.0827 -0.0016
    1DIPC   C4B25008   3.699  28.969   4.527 -0.2619  0.0807 -0.1411
    1DIPC   NC325009  19.879   9.691   2.314 -0.1667  0.0904 -0.0576
    1DIPC   PO425010  19.611   9.989   2.552 -0.0172 -0.2098  0.2563
    1DIPC   GL125011  19.579   9.877   3.009  0.0368  0.1564  0.1050
    1DIPC   GL225012  19.174   9.883   3.027  0.1510 -0.0056 -0.1055
    1DIPC   C1A25013  19.437   9.558   3.370 -0.2024 -0.0990  0.0900
    1DIPC   D2A25014  19.804   9.462   3.639  0.0896  0.3774 -0.0909
    1DIPC   D3A25015  19.506   9.137   3.802  0.0442  0.0390  0.2176
    1DIPC   C4A25016  19.580   8.975   4.220  0.1553  0.1545  0.0791
    1DIPC   C1B25017  19.080  10.053   3.421 -0.0700 -0.0458 -0.0316
    1DIPC   D2B25018  18.801  10.415   3.641  0.2776 -0.2427 -0.0170
    1DIPC   D3B25019  19.200  10.587   3.597 -0.0138  0.0068  0.1670
    1DIPC   C4B25020  19.195  10.963   3.822 -0.3302  0.0305  0.2825
    1DIPC   NC325021  10.328  25.827   2.558 -0.0707  0.1626  0.2546
    1DIPC   PO425022  10.297  25.405   2.572 -0.1365 -0.2840  0.2104
    1DIPC   GL125023  10.073  25.498   2.996 -0.0434 -0.1244 -0.0681
    1DIPC   GL225024  10.031  25.831   2.909 -0.0959 -0.3821  0.4085
    1DIPC   C1A25025   9.865  25.494   3.493  0.1147  0.2142 -0.0948
    1DIPC   D2A25026  10.098  25.552   3.917  0.0358 -0.1147  0.3902
    1DIPC   D3A25027   9.885  25.865   4.248 -0.1142  0.0573  0.2840
    1DIPC   C4A25028  10.088  26.276   4.457  0.0337 -0.1568 -0.2626
    1DIPC   C1B25029  10.194  25.877   3.356  0.0895  0.0489 -0.1957
    1DIPC   D2B25030  10.501  25.819   3.630  0.3504 -0.3539 -0.1707
    1DIPC   D3B25031  10.920  25.979   3.688  0.2592  0.1479  0.4071
    1DIPC   C4B25032  11.170  25.807   4.088 -0.1414 -0.2103 -0.0878
    1DIPC   NC325033  14.837  26.223   2.789  0.0762 -0.0826  0.3534
    1DIPC   PO425034  14.587  25.849   2.828  0.0701 -0.1262 -0.1824
    1DIPC   GL125035  14.674  25.730   3.203  0.1328  0.1696 -0.1353
    1DIPC   GL225036  14.623  25.968   3.374  0.0381 -0.0252  0.3677
    1DIPC   C1A25037  14.763  25.615   3.661  0.1237 -0.3308 -0.3772
    1DIPC   D2A25038  14.497  25.539   3.926  0.0791 -0.0933 -0.1789
    1DIPC   D3A25039  14.554  25.399   4.418  0.2885  0.0863 -0.0796
    1DIPC   C4A25040  14.749  25.687   4.641 -0.0134 -0.2249 -0.0839
    1DIPC   C1B25041  14.936  26.150   3.591 -0.0168  0.2473 -0.0708
    1DIPC   D2B25042  15.330  26.211   3.513 -0.2214  0.0106 -0.1387
    1DIPC   D3B25043  15.698  26.121   3.452  0.0180  0.2467 -0.2846
    1DIPC   C4B25044  15.827  25.755   3.646 -0.0574 -0.0208 -0.0410
    1DIPC   NC325045  22.269  26.302   3.216 -0.1655 -0.2765 -0.1150
    1DIPC   PO425046  22.670  26.422   3.404  0.2028 -0.2232 -0.2219
    1DIPC   GL125047  22.706  26.633   3.811  0.0156  0.2130 -0.1251
    1DIPC   GL225048  22.760  27.017   3.750 -0.2955 -0.3776 -0.2301
    1DIPC   C1A25049  22.849  26.800   4.204  0.1001  0.0729  0.0968
    1DIPC   D2A25050  22.934  26.876   4.689 -0.0347 -0.1177  0.0204
    1DIPC   D3A25051  23.081  26.749   5.152  0.1462  0.1439  0.0576
    1DIPC   C4A25052  23.279  26.977   5.502 -0.1107  0.1538 -0.0498
    1DIPC   C1B25053  23.102  27.355   3.993  0.1828  0.3669  0.1875
    1DIPC   D2B25054  23.127  27.817   4.007 -0.0357  0.1341 -0.1362
    1DIPC   D3B25055  23.465  28.035   4.216 -0.2331  0.0077 -0.2403
    1DIPC   C4B25056  23.418  28.356   4.544 -0.3644  0.1629 -0.0891
    1DIPC   NC325057  11.478  23.559   1.999  0.2799 -0.3476  0.1262
    1DIPC   PO425058  11.478  23.428   2.444 -0.1660 -0.2582  0.1492
    1DIPC   GL125059  11.501  23.350   2.927  0.1792  0.1191 -0.2536
    1DIPC   GL225060  11.210  23.365   3.144  0.1881 -0.0760  0.1506
    1DIPC   C1A25061  11.676  23.246   3.299 -0.1090  0.1284 -0.1361
    1DIPC   D2A25062  11.432  23.523   3.632 -0.2860  0.0009  0.0825
    1DIPC   D3A25063  11.754  23.667   4.049  0.0980 -0.0486 -0.0154
    1DIPC   C4A25064  12.095  23.785   4.089 -0.3788  0.3678  0.0191
    1DIPC   C1B25065  10.971  23.382   3.482  0.0320 -0.1201 -0.0367
    1DIPC   D2B25066  10.903  23.128   3.783  0.2420  0.0839 -0.0146
    1DIPC   D3B25067  11.292  23.175   4.006  0.0989  0.0020 -0.1154
    1DIPC   C4B25068  11.524  23.264   4.379  0.1052  0.3079  0.1161
    1DIPC   NC325069  10.148   6.788   2.654  0.0575 -0.1964  0.0643
    1DIPC   PO425070  10.101   7.184   2.554  0.1801  0.3177 -0.0001
    1DIPC   GL125071  10.212   7.150   2.987  0.1211 -0.3953 -0.0606
    1DIPC   GL225072  10.244   7.419   3.161 -0.4476 -0.1168  0.0068
    1DIPC   C1A25073  10.350   6.998   3.421  0.0632  0.2357  0.2108
    1DIPC   D2A25074  10.559   6.906   3.854 -0.2226 -0.1095 -0.1968
    1DIPC   D3A25075  10.279   7.010   4.222  0.0113 -0.0048 -0.0260
    1DIPC   C4A25076   9.829   6.891   4.412 -0.2529  0.0016  0.2223
    1DIPC   C1B25077   9.878   7.274   3.552 -0.3176 -0.5059  0.2343
    1DIPC   D2B25078   9.913   6.881   3.887  0.2915  0.1537  0.1934
    1DIPC   D3B25079  10.000   6.500   4.203  0.2536  0.2612  0.1267
    1DIPC   C4B25080   9.814   6.105   4.489 -0.2472  0.0473  0.1357
    1DIPC   NC325081  20.058  17.908   2.243 -0.4779 -0.0507  0.1738
    1DIPC   PO425082  20.347  17.613   2.441  0.0406 -0.1610 -0.1457
    1DIPC   GL125083  20.454  17.700   2.898  0.1835 -0.0910 -0.1480
    1DIPC   GL225084  20.716  17.672   2.948 -0.1762 -0.0997  0.3977
    1DIPC   C1A25085  20.434  17.580   3.347 -0.3168 -0.1004  0.1645
    1DIPC   D2A25086  20.095  17.737   3.643  0.2040  0.0641  0.1274
    1DIPC   D3A25087  19.845  17.472   3.758 -0.0192  0.0436 -0.0276
    1DIPC   C4A25088  19.877  17.345   4.176  0.1278  0.0817  0.0821
    1DIPC   C1B25089  20.901  18.049   2.913  0.0966 -0.3298  0.0400
    1DIPC   D2B25090  20.802  18.495   2.981  0.0589  0.0936  0.3041
    1DIPC   D3B25091  20.955  18.816   3.217  0.1300  0.4351 -0.0454
    1DIPC   C4B25092  20.784  18.981   3.603 -0.1056  0.0784 -0.0859
    1DIPC   NC325093  13.055  18.751   2.223  0.0167  0.0293 -0.2597
    1DIPC   PO425094  12.634  18.815   2.264 -0.1057  0.1857  0.1254
    1DIPC   GL125095  12.394  19.044   2.593 -0.3315 -0.0318 -0.1758
    1DIPC   GL225096  12.139  18.953   2.634 -0.1889  0.1583  0.1078
    1DIPC   C1A25097  12.371  19.380   2.897  0.1442  0.0338 -0.0592
    1DIPC   D2A25098  12.170  19.874   2.997  0.0058  0.2390  0.0267
    1DIPC   D3A25099  12.073  19.491   3.279 -0.1198 -0.0704  0.1674
    1DIPC   C4A25100  11.802  19.195   3.515 -0.2702 -0.0009 -0.3134
    1DIPC   C1B25101  12.348  18.528   2.911  0.0819  0.0638  0.3004
    1DIPC   D2B25102  12.216  18.515   3.373 -0.0428  0.0434  0.1962
    1DIPC   D3B25103  12.127  18.194   3.556  0.1522 -0.0410 -0.0048
    1DIPC   C4B25104  11.774  17.899   3.466  0.1710 -0.2853  0.1183
    1DIPC   NC325105   8.281  20.791   1.884 -0.0962 -0.2403 -0.2963
    1DIPC   PO425106   8.715  20.685   2.121  0.2214 -0.1425  0.1150
    1DIPC   GL125107   8.468  20.629   2.541 -0.1361 -0.0469  0.1789
    1DIPC   GL225108   8.680  20.486   2.635  0.1790  0.2213  0.0626
    1DIPC   C1A25109   8.176  20.734   2.787  0.0181  0.1391 -0.1248
    1DIPC   D2A25110   8.170  20.656   3.179 -0.2554  0.1026  0.2509
    1DIPC   D3A25111   7.959  21.037   3.414  0.1642  0.0578  0.0706
    1DIPC   C4A25112   7.836  21.074   3.706  0.2065  0.0478 -0.0340
    1DIPC   C1B25113   8.607  20.452   3.111  0.2026  0.1026  0.2218
    1DIPC   D2B25114   8.594  20.292   3.526  0.0269  0.0968  0.2499
    1DIPC   D3B25115   8.230  20.401   3.712 -0.3525 -0.0402  0.2521
    1DIPC   C4B25116   7.823  20.180   3.877 -0.0173  0.1543 -0.2244
    1DIPC   NC325117   6.997  25.641   2.422  0.0331 -0.2341  0.1417
    1DIPC   PO425118   7.274  25.327   2.433  0.0702  0.3650 -0.3369
    1DIPC   GL125119   7.303  25.040   2.767  0.1656 -0.0470 -0.4654
    1DIPC   GL225120   7.377  24.630   2.762  0.3846 -0.2109  0.1965
    1DIPC   C1A25121   7.234  24.877   3.225 -0.0735  0.2171 -0.0665
    1DIPC   D2A25122   7.389  24.673   3.585 -0.0077  0.0078 -0.0363
    1DIPC   D3A25123   7.052  24.919   3.722  0.0061 -0.0408 -0.3214
    1DIPC   C4A25124   6.950  25.250   3.488 -0.3322  0.4610 -0.1480
    1DIPC   C1B25125   7.416  24.255   3.117  0.1778 -0.1749 -0.0597
    1DIPC   D2B25126   7.182  24.119   3.492  0.1099  0.1685  0.1701
    1DIPC   D3B25127   7.387  24.247   3.785  0.2735  0.1231  0.0014
    1DIPC   C4B25128   7.703  23.983   3.972  0.2279  0.2437  0.2114
    1DIPC   NC325129  12.098  14.267   2.808 -0.2977  0.2332 -0.1230
    1DIPC   PO425130  12.010  13.837   3.139 -0.1097  0.1018 -0.1341
    1DIPC   GL125131  11.843  14.040   3.573  0.0758  0.0236  0.1201
    1DIPC   GL225132  12.056  14.096   3.883  0.2105  0.2498 -0.2020
    1DIPC   C1A25133  11.595  14.249   3.803  0.4333 -0.0468 -0.0219
    1DIPC   D2A25134  11.425  14.499   4.033 -0.0381 -0.1920 -0.1461
    1DIPC   D3A25135  11.321  14.037   4.236 -0.5482 -0.1536 -0.0370
    1DIPC   C4A25136  10.967  13.990   4.518 -0.0647  0.1064  0.0955
    1DIPC   C1B25137  11.953  14.203   4.298  0.1658 -0.1028  0.4015
    1DIPC   D2B25138  11.789  14.400   4.727  0.0815  0.3416 -0.1211
    1DIPC   D3B25139  11.963  14.762   4.899 -0.0128 -0.0319  0.0854
    1DIPC   C4B25140  12.313  14.732   4.965  0.0693  0.1018  0.1104
    1DIPC   NC325141  20.892   0.373   2.464 -0.1983  0.0715  0.0429
    1DIPC   PO425142  20.888   0.289   2.960  0.0968 -0.0250  0.0918
    1DIPC   GL125143  20.908   0.223   3.463  0.1133  0.0788 -0.0475
    1DIPC   GL225144  20.887  30.273   3.560  0.1391 -0.1875 -0.2324
    1DIPC   C1A25145  20.634   0.457   3.790 -0.0634 -0.0692 -0.2945
    1DIPC   D2A25146  20.592   0.783   4.043  0.0108 -0.3260  0.1805
    1DIPC   D3A25147  20.175   0.751   4.412  0.2587 -0.0904  0.0083
    1DIPC   C4A25148  20.143   0.423   4.714 -0.0846  0.1295  0.0228
    1DIPC   C1B25149  21.046  29.996   3.770  0.0179 -0.1013 -0.1511
    1DIPC   D2B25150  21.114  29.610   4.134  0.2752 -0.1423 -0.1491
    1DIPC   D3B25151  20.760  29.522   4.344 -0.0474  0.0719 -0.3760
    1DIPC   C4B25152  20.354  29.792   4.356 -0.1357 -0.1190 -0.0455
    1DIPC   NC325153   3.152   1.018   3.101  0.0729 -0.0728  0.0271
    1DIPC   PO425154   3.393   1.327   3.258 -0.0234  0.1007 -0.0478
    1DIPC   GL125155   3.200   1.177   3.609 -0.0495  0.1173  0.0888
    1DIPC   GL225156   3.481   1.088   3.785 -0.1219 -0.0313  0.1369
    1DIPC   C1A25157   3.157   1.302   4.112 -0.0313 -0.1730  0.3363
    1DIPC   D2A25158   3.464   1.563   4.348  0.0444 -0.1608 -0.0748
    1DIPC   D3A25159   3.627   1.257   4.597  0.1607  0.1285 -0.1861
    1DIPC   C4A25160   3.545   1.076   5.022  0.5082  0.0582  0.0452
    1DIPC   C1B25161   3.498   0.946   4.230 -0.1027  0.0473 -0.1006
    1DIPC   D2B25162   3.396   0.638   4.543  0.0765 -0.1362 -0.0513
    1DIPC   D3B25163   3.087   0.846   4.832 -0.0117  0.0639  0.2225
    1DIPC   C4B25164   3.091   1.203   5.164 -0.1350  0.4095  0.0339
    1DIPC   NC325165   9.370  21.869   1.860 -0.1935 -0.0642  0.3453
    1DIPC   PO425166   9.134  21.709   2.235 -0.1398 -0.0571  0.0258
    1DIPC   GL125167   9.060  21.856   2.691 -0.1231  0.1830  0.0810
    1DIPC   GL225168   8.930  22.303   2.694  0.0665  0.1206 -0.0049
    1DIPC   C1A25169   8.954  21.926   3.188 -0.2009  0.1714 -0.0256
    1DIPC   D2A25170   8.992  21.826   3.691 -0.0169  0.1641  0.0839
    1DIPC   D3A25171   9.373  21.766   3.862 -0.0075 -0.0275  0.2408
    1DIPC   C4A25172   9.220  21.749   4.280  0.3518  0.2204  0.0612
    1DIPC   C1B25173   8.738  22.339   3.105 -0.1369  0.0051 -0.0826
    1DIPC   D2B25174   8.794  22.266   3.488  0.0501  0.1192 -0.1969
    1DIPC   D3B25175   9.133  22.343   3.755 -0.1412 -0.0212  0.2134
    1DIPC   C4B25176   9.342  22.710   3.926  0.0949  0.2215  0.3707
    1DIPC   NC325177   9.128   6.732   2.212  0.1369 -0.3712 -0.2552
    1DIPC   PO425178   9.179   6.634   2.695 -0.1814 -0.1751  0.1513
    1DIPC   GL125179   9.436   6.848   3.092 -0.1491  0.2952 -0.0975
    1DIPC   GL225180   9.528   7.229   3.195  0.0044 -0.0411 -0.2189
    1DIPC   C1A25181   9.678   6.750   3.474  0.1637  0.2957  0.1356
    1DIPC   D2A25182   9.855   6.404   3.748  0.1966  0.0229 -0.1869
    1DIPC   D3A25183  10.313   6.342   3.794  0.1505 -0.2003 -0.1815
    1DIPC   C4A25184  10.662   6.555   3.563  0.1137  0.0372 -0.0912
    1DIPC   C1B25185   9.424   7.172   3.628  0.2252  0.1689  0.2777
    1DIPC   D2B25186   9.384   7.061   4.084  0.0925 -0.0556  0.5194
    1DIPC   D3B25187   9.773   7.313   4.147  0.0612  0.3273 -0.0012
    1DIPC   C4B25188   9.767   7.450   4.506  0.2914 -0.0964 -0.2972
    1DIPC   NC325189  16.673   0.348   3.205  0.1741  0.3528 -0.0077
    1DIPC   PO425190  16.629   0.001   3.098 -0.1833 -0.1432 -0.1917
    1DIPC   GL125191  16.853  30.329   3.492 -0.2392  0.1367 -0.0377
    1DIPC   GL225192  16.909   0.252   3.803 -0.2121  0.3083  0.1418
    1DIPC   C1A25193  16.718  30.188   3.908  0.0970  0.0989  0.2584
    1DIPC   D2A25194  16.675  30.263   4.322  0.0471  0.2428 -0.2143
    1DIPC   D3A25195  16.717  29.847   4.366  0.0607 -0.1465 -0.3268
    1DIPC   C4A25196  16.368  29.638   4.426 -0.1363  0.1104 -0.3817
    1DIPC   C1B25197  16.480   0.299   4.134  0.1027  0.0769  0.0405
    1DIPC   D2B25198  16.121   0.172   4.034  0.1026  0.2110  0.2330
    1DIPC   D3B25199  16.197   0.023   4.476  0.1330  0.1520  0.1316
    1DIPC   C4B25200  16.323  30.091   4.724 -0.0787  0.0087  0.0366
    1DIPC   NC325201  23.403   7.964   2.439 -0.1400  0.0542  0.0349
    1DIPC   PO425202  23.808   8.136   2.601 -0.0110 -0.0604 -0.0522
    1DIPC   GL125203  23.733   7.850   3.011 -0.1136  0.2070  0.1907
    1DIPC   GL225204  23.981   7.560   3.050  0.0404 -0.1062 -0.0027
    1DIPC   C1A25205  23.547   8.007   3.325  0.2338 -0.0421 -0.1807
    1DIPC   D2A25206  23.366   7.891   3.697 -0.0356 -0.2456  0.1483
    1DIPC   D3A25207  23.779   8.001   3.788 -0.0339 -0.1188 -0.3554
    1DIPC   C4A25208  24.112   8.280   4.096  0.1177 -0.1362 -0.0916
    1DIPC   C1B25209  24.265   7.560   3.354 -0.1393  0.1500  0.2338
    1DIPC   D2B25210  24.422   7.430   3.765  0.3484  0.0883 -0.0094
    1DIPC   D3B25211  24.155   7.111   3.937 -0.0208 -0.0719 -0.0921
    1DIPC   C4B25212  23.694   6.995   3.998 -0.2269 -0.3400  0.1056
    1DIPC   NC325213  29.969   3.974   3.007 -0.2519 -0.2436 -0.3071
    1DIPC   PO425214  29.801   3.709   3.288 -0.2453 -0.0877  0.3007
    1DIPC   GL125215  29.584   3.638   3.662  0.1159 -0.0246 -0.2863
    1DIPC   GL225216  29.417   3.855   3.795  0.0831  0.1664 -0.1069
    1DIPC   C1A25217  29.518   3.466   4.127 -0.0200 -0.2612  0.3081
    1DIPC   D2A25218  29.447   3.126   4.382  0.1486 -0.1432  0.0187
    1DIPC   D3A25219  29.357   3.556   4.581  0.0127 -0.1260  0.4308
    1DIPC   C4A25220  29.547   3.688   4.975 -0.1529  0.1916 -0.0709
    1DIPC   C1B25221  29.345   4.135   4.085  0.0399  0.0331  0.1577
    1DIPC   D2B25222  29.366   4.188   4.489 -0.0038 -0.3764  0.1297
    1DIPC   D3B25223  29.600   4.196   4.870 -0.0585 -0.1266 -0.0376
    1DIPC   C4B25224  29.276   4.143   5.301 -0.0569  0.0616  0.2956
    1DIPC   NC325225  24.389  27.310   3.169 -0.0113  0.1254 -0.1504
    1DIPC   PO425226  24.510  27.785   3.180  0.0055 -0.0881  0.4581
    1DIPC   GL125227  24.371  27.643   3.538  0.2189 -0.0639 -0.0884
    1DIPC   GL225228  24.597  27.418   3.629  0.0915  0.0178 -0.1744
    1DIPC   C1A25229  24.363  27.785   3.991 -0.1663  0.2157  0.0540
    1DIPC   D2A25230  24.484  27.945   4.420  0.1545  0.0745 -0.1884
    1DIPC   D3A25231  24.261  27.833   4.680 -0.2648 -0.0369 -0.1339
    1DIPC   C4A25232  24.206  28.170   5.006  0.0324 -0.0596  0.0167
    1DIPC   C1B25233  24.387  26.946   3.751 -0.2412  0.2776 -0.1242
    1DIPC   D2B25234  24.722  26.629   3.780  0.1219 -0.3063  0.0105
    1DIPC   D3B25235  24.984  26.867   4.011 -0.3206  0.3664 -0.0003
    1DIPC   C4B25236  25.381  26.907   4.204 -0.0544 -0.0660  0.1644
    1DIPC   NC325237  17.646  15.146   2.704 -0.1117  0.1128 -0.3846
    1DIPC   PO425238  17.613  14.804   2.910  0.2534  0.2377 -0.0732
    1DIPC   GL125239  17.775  14.644   3.266 -0.0407  0.0686 -0.1109
    1DIPC   GL225240  18.059  14.579   3.170 -0.0302  0.0955 -0.2591
    1DIPC   C1A25241  17.671  14.722   3.696 -0.0683 -0.1889 -0.2822
    1DIPC   D2A25242  17.434  14.886   4.157  0.1536 -0.0095  0.1412
    1DIPC   D3A25243  17.695  15.259   4.355  0.4412 -0.2638 -0.1271
    1DIPC   C4A25244  17.450  15.563   4.562 -0.0866 -0.0890  0.1818
    1DIPC   C1B25245  18.114  14.919   3.564  0.0620  0.0064  0.0205
    1DIPC   D2B25246  18.008  15.065   3.963  0.1932 -0.0901 -0.0291
    1DIPC   D3B25247  18.309  15.342   4.034  0.0596  0.1581 -0.1433
    1DIPC   C4B25248  18.253  15.764   4.085 -0.4264 -0.1744  0.0224
    1DIPC   NC325249   1.847  28.412   3.469  0.1047  0.0018 -0.1528
    1DIPC   PO425250   2.351  28.395   3.498 -0.1140  0.0845 -0.2622
    1DIPC   GL125251   2.555  28.399   3.849 -0.0341  0.3150  0.2130
    1DIPC   GL225252   2.737  28.716   3.987  0.1300  0.0238 -0.0721
    1DIPC   C1A25253   2.477  28.370   4.198 -0.1870 -0.0135  0.1292
    1DIPC   D2A25254   2.512  27.985   4.505 -0.0741 -0.0569  0.0026
    1DIPC   D3A25255   2.418  28.255   4.774 -0.0568  0.1436  0.0686
    1DIPC   C4A25256   2.061  28.138   5.070 -0.0027  0.0277 -0.3406
    1DIPC   C1B25257   2.930  28.618   4.343  0.0792 -0.1447  0.2678
    1DIPC   D2B25258   2.928  28.404   4.693  0.0101  0.1514 -0.0409
    1DIPC   D3B25259   2.886  27.977   4.866  0.1933  0.0952  0.0610
    1DIPC   C4B25260   2.769  27.595   4.628  0.1425 -0.1883 -0.2260
    1DIPC   NC325261  14.541   3.785   2.575  0.2107  0.2778  0.1956
    1DIPC   PO425262  14.371   3.384   2.845  0.1269  0.0255  0.0856
    1DIPC   GL125263  14.322   3.554   3.236 -0.3295  0.1333 -0.2287
    1DIPC   GL225264  14.196   3.269   3.375  0.1144  0.1841 -0.2429
    1DIPC   C1A25265  14.543   3.881   3.392  0.3067 -0.0071  0.1279
    1DIPC   D2A25266  14.554   3.930   3.841  0.0004  0.2502 -0.0922
    1DIPC   D3A25267  14.488   4.057   4.241  0.1459  0.1230  0.2260
    1DIPC   C4A25268  14.719   4.001   4.580  0.1869 -0.1399  0.0508
    1DIPC   C1B25269  14.409   3.180   3.770 -0.0220  0.5076 -0.0865
    1DIPC   D2B25270  14.410   3.475   4.217  0.0734  0.1167  0.1549
    1DIPC   D3B25271  14.126   3.120   4.472 -0.1321  0.0276  0.3147
    1DIPC   C4B25272  14.357   2.707   4.576 -0.0815 -0.1273  0.1439
    1DIPC   NC325273   0.012   2.657   4.085  0.3011 -0.1996  0.4979
    1DIPC   PO425274  30.249   2.227   3.935 -0.1346 -0.0865 -0.0754
    1DIPC   GL125275  29.992   2.196   4.183  0.1283  0.1901  0.2588
    1DIPC   GL225276  29.760   2.330   3.974  0.1879  0.3843  0.1440
    1DIPC   C1A25277  29.592   2.299   4.453  0.0967  0.4491 -0.0872
    1DIPC   D2A25278  29.372   2.280   4.803 -0.1887  0.1650 -0.1395
    1DIPC   D3A25279  29.189   2.196   5.210 -0.0819 -0.0141 -0.1499
    1DIPC   C4A25280  28.770   2.343   5.431 -0.2969 -0.0510  0.3923
    1DIPC   C1B25281  29.814   2.669   4.280 -0.2082 -0.0645  0.0161
    1DIPC   D2B25282  30.050   2.602   4.654  0.2618  0.0762  0.1652
    1DIPC   D3B25283  29.845   2.501   5.081 -0.0073 -0.0767 -0.0173
    1DIPC   C4B25284  30.099   2.356   5.391 -0.0937 -0.2610  0.0275
    1DIPC   NC325285  15.685  19.152   2.308 -0.0812 -0.0724 -0.2609
    1DIPC   PO425286  15.618  19.535   2.136 -0.0205 -0.2134  0.2102
    1DIPC   GL125287  15.428  19.672   2.495 -0.0337 -0.2101 -0.0571
    1DIPC   GL225288  15.404  19.965   2.602 -0.1399  0.1309  0.1082
    1DIPC   C1A25289  15.304  19.510   2.884  0.1094  0.1329  0.2160
    1DIPC   D2A25290  15.183  19.173   3.266  0.3411  0.0439 -0.2454
    1DIPC   D3A25291  15.262  19.569   3.408 -0.0763  0.1403  0.1296
    1DIPC   C4A25292  15.569  19.700   3.631 -0.2859  0.2868  0.0744
    1DIPC   C1B25293  15.049  19.940   2.941  0.1242  0.0299  0.4227
    1DIPC   D2B25294  14.822  19.473   3.058 -0.0841 -0.4481  0.3413
    1DIPC   D3B25295  14.812  19.834   3.478 -0.2976  0.0343  0.2201
    1DIPC   C4B25296  15.144  20.050   3.595  0.4992  0.2656 -0.0470
    1DIPC   NC325297   2.593   7.960   2.375 -0.1527  0.0749  0.1716
    1DIPC   PO425298   2.288   8.237   2.675  0.1725 -0.1034 -0.2505
    1DIPC   GL125299   2.121   8.168   3.074  0.1774  0.1058  0.0297
    1DIPC   GL225300   2.006   7.832   3.015  0.0274  0.1009  0.0236
    1DIPC   C1A25301   2.121   8.401   3.489 -0.1042  0.2722  0.2383
    1DIPC   D2A25302   1.892   8.523   3.843 -0.0576  0.0143  0.2420
    1DIPC   D3A25303   2.092   8.686   4.262  0.1403 -0.1215  0.0579
    1DIPC   C4A25304   2.484   8.646   4.439  0.1031 -0.0647  0.2270
    1DIPC   C1B25305   1.729   7.903   3.394 -0.3942  0.0515  0.2015
    1DIPC   D2B25306   1.920   8.006   3.728 -0.2325  0.0512 -0.1855
    1DIPC   D3B25307   1.723   7.715   3.970 -0.1118 -0.2575 -0.0117
    1DIPC   C4B25308   1.894   7.559   4.343 -0.2716 -0.0266  0.0613
    1DIPC   NC325309  10.555   2.638   2.915  0.0411  0.0867  0.0624
    1DIPC   PO425310  10.326   2.882   3.015  0.0694  0.1285 -0.0000
    1DIPC   GL125311  10.370   3.090   3.391 -0.1048 -0.1785  0.3309
    1DIPC   GL225312  10.621   3.359   3.248 -0.2142  0.0172  0.0702
    1DIPC   C1A25313  10.534   3.346   3.809 -0.2916  0.1033 -0.0131
    1DIPC   D2A25314  10.445   3.400   4.291  0.1439  0.0316 -0.0486
    1DIPC   D3A25315   9.989   3.281   4.219  0.0868 -0.1412 -0.1674
    1DIPC   C4A25316   9.741   3.631   4.430 -0.2456 -0.2178  0.1353
    1DIPC   C1B25317  10.830   3.005   3.445  0.2038 -0.2295 -0.0599
    1DIPC   D2B25318  10.920   2.686   3.782  0.1245  0.0837 -0.0886
    1DIPC   D3B25319  11.206   2.460   3.980 -0.2476 -0.1861  0.3862
    1DIPC   C4B25320  11.623   2.637   4.154  0.0809 -0.0191  0.0836
    1DIPC   NC325321  13.084   5.863   2.226 -0.0569  0.2826 -0.0222
    1DIPC   PO425322  13.321   6.204   2.352 -0.0754  0.1902 -0.3582
    1DIPC   GL125323  13.091   6.030   2.704 -0.0334  0.1704  0.0162
    1DIPC   GL225324  12.807   5.866   2.725  0.0124 -0.1007  0.0284
    1DIPC   C1A25325  12.803   6.237   3.046 -0.0905 -0.0215  0.0182
    1DIPC   D2A25326  12.571   6.292   3.437  0.1733  0.0773  0.1448
    1DIPC   D3A25327  12.896   6.334   3.729  0.0634 -0.0724  0.0147
    1DIPC   C4A25328  13.059   5.988   4.044 -0.0498 -0.3181  0.1998
    1DIPC   C1B25329  12.659   5.649   3.099 -0.0918 -0.3892  0.2673
    1DIPC   D2B25330  12.663   5.532   3.548 -0.3834 -0.0509  0.1581
    1DIPC   D3B25331  12.494   5.987   3.764  0.0323 -0.1801  0.1445
    1DIPC   C4B25332  12.595   6.204   4.159  0.1539  0.1460  0.3135
    1DIPC   NC325333  16.894  10.791   2.249 -0.1829 -0.0590  0.2875
    1DIPC   PO425334  16.892  10.293   2.539  0.1124  0.3327  0.1579
    1DIPC   GL125335  17.156  10.129   2.927  0.0194 -0.3432  0.1301
    1DIPC   GL225336  17.384  10.065   2.940 -0.1425 -0.1582 -0.1367
    1DIPC   C1A25337  17.272   9.636   3.107 -0.2838 -0.1173 -0.3306
    1DIPC   D2A25338  17.074   9.116   2.905  0.1397 -0.0290 -0.0148
    1DIPC   D3A25339  16.981   8.857   3.318 -0.0910 -0.1059  0.0112
    1DIPC   C4A25340  17.107   8.662   3.580 -0.2905 -0.0686  0.2315
    1DIPC   C1B25341  17.407  10.143   3.354  0.1688  0.0912  0.0158
    1DIPC   D2B25342  17.425  10.198   3.778  0.0701  0.1050  0.2601
    1DIPC   D3B25343  17.904  10.376   3.948 -0.0276 -0.2151  0.2094
    1DIPC   C4B25344  18.044  10.679   4.265 -0.0454 -0.3915  0.2216
    1DIPC   NC325345  21.718  15.447   2.099 -0.0896 -0.3656 -0.1878
    1DIPC   PO425346  21.784  15.967   2.323  0.0709  0.2751 -0.0141
    1DIPC   GL125347  21.819  15.874   2.762 -0.1385 -0.1364  0.1864
    1DIPC   GL225348  21.827  15.659   2.980 -0.2040  0.2378  0.0596
    1DIPC   C1A25349  21.694  16.112   3.162 -0.1188 -0.0364  0.1288
    1DIPC   D2A25350  21.486  16.391   3.340 -0.0298  0.0998  0.0752
    1DIPC   D3A25351  21.673  16.417   3.852  0.1723 -0.0796 -0.1114
    1DIPC   C4A25352  21.619  16.798   4.191  0.0030 -0.1670  0.3210
    1DIPC   C1B25353  21.993  15.707   3.356  0.2013  0.3635 -0.1882
    1DIPC   D2B25354  22.310  15.725   3.676 -0.1795 -0.1814  0.0964
    1DIPC   D3B25355  22.100  16.088   3.806 -0.0196 -0.1015  0.1988
    1DIPC   C4B25356  22.082  16.253   4.149 -0.1158  0.2127  0.1273
    1DIPC   NC325357  20.354  14.005   2.614 -0.1558 -0.1268 -0.0509
    1DIPC   PO425358  20.304  13.566   2.539 -0.5239 -0.0167  0.0584
    1DIPC   GL125359  20.248  13.478   2.971 -0.0013  0.0252 -0.1218
    1DIPC   GL225360  20.175  13.873   3.083  0.3274  0.0541 -0.2080
    1DIPC   C1A25361  20.118  13.399   3.323 -0.0426 -0.0230 -0.1201
    1DIPC   D2A25362  20.058  13.510   3.818  0.2539 -0.3093 -0.3534
    1DIPC   D3A25363  19.774  13.239   4.061 -0.0186 -0.0733  0.1752
    1DIPC   C4A25364  19.871  12.905   4.332  0.1454  0.1895  0.0058
    1DIPC   C1B25365  19.964  13.937   3.474  0.1101  0.0291  0.1428
    1DIPC   D2B25366  19.691  13.885   3.820 -0.0092 -0.0629  0.0421
    1DIPC   D3B25367  19.620  13.583   3.500  0.2959  0.5391  0.1161
    1DIPC   C4B25368  19.677  13.528   3.059  0.0735  0.1211 -0.0600
    1DIPC   NC325369   6.929   5.813   3.509  0.0159 -0.1308 -0.0183
    1DIPC   PO425370   7.321   5.567   3.392  0.2433  0.0423 -0.1054
    1DIPC   GL125371   7.490   5.638   3.808 -0.1035 -0.0612  0.5884
    1DIPC   GL225372   7.755   5.858   3.830 -0.0200  0.0354  0.1136
    1DIPC   C1A25373   7.577   5.622   4.211  0.0780 -0.1111  0.0983
    1DIPC   D2A25374   7.853   5.390   4.501  0.2493 -0.1843  0.0359
    1DIPC   D3A25375   7.799   5.636   4.796 -0.0649 -0.1095 -0.2347
    1DIPC   C4A25376   7.426   5.871   4.956  0.3091  0.0207 -0.1256
    1DIPC   C1B25377   7.498   6.086   4.167  0.0183  0.0637 -0.0568
    1DIPC   D2B25378   7.609   6.004   4.538  0.2546 -0.1568 -0.1518
    1DIPC   D3B25379   7.182   6.109   4.532  0.0052  0.2412 -0.1918
    1DIPC   C4B25380   7.088   6.430   4.331 -0.3779  0.2590  0.1220
    1DIPC   NC325381  20.876   4.222   3.084 -0.3787 -0.0455 -0.0003
    1DIPC   PO425382  20.550   3.901   3.039  0.0756 -0.0689 -0.1613
    1DIPC   GL125383  20.394   3.701   3.373  0.1061  0.0942  0.0468
    1DIPC   GL225384  20.108   3.914   3.344  0.1309 -0.0317 -0.0108
    1DIPC   C1A25385  20.286   3.580   3.818  0.2229 -0.0666 -0.1483
    1DIPC   D2A25386  20.172   3.603   4.286  0.0789  0.0065  0.1481
    1DIPC   D3A25387  20.006   3.921   4.595 -0.1365  0.1056 -0.0358
    1DIPC   C4A25388  19.773   3.756   4.900 -0.1152  0.1029  0.2061
    1DIPC   C1B25389  19.785   4.057   3.578 -0.2686  0.2419 -0.2186
    1DIPC   D2B25390  19.432   4.067   3.586 -0.0561  0.4047  0.0236
    1DIPC   D3B25391  19.161   3.843   3.815 -0.0614  0.0483  0.1573
    1DIPC   C4B25392  19.026   4.073   4.201 -0.0288  0.1680  0.0512
    1DIPC   NC325393  14.500  12.329   3.829  0.1573  0.1707 -0.1047
    1DIPC   PO425394  14.801  11.970   3.768 -0.2091  0.0539  0.2017
    1DIPC   GL125395  15.078  11.864   4.093  0.0727  0.1419 -0.0659
    1DIPC   GL225396  14.839  11.647   4.238 -0.1158 -0.0271 -0.2777
    1DIPC   C1A25397  15.233  11.879   4.517  0.0118  0.0133 -0.0157
    1DIPC   D2A25398  15.652  12.079   4.770 -0.0688 -0.0638 -0.0218
    1DIPC   D3A25399  16.042  12.176   4.820  0.2025 -0.3007  0.0711
    1DIPC   C4A25400  16.093  12.650   5.051  0.0468  0.0689 -0.0539
    1DIPC   C1B25401  14.773  11.400   4.657 -0.1199  0.0742 -0.1892
    1DIPC   D2B25402  14.764  10.971   4.863  0.0577 -0.1134  0.1181
    1DIPC   D3B25403  14.564  11.011   5.152 -0.1464  0.0939  0.1138
    1DIPC   C4B25404  14.134  11.026   5.090 -0.0462  0.1690  0.2005
    1DIPC   NC325405   7.324   3.191   2.811  0.3101  0.1002 -0.0205
    1DIPC   PO425406   7.278   2.876   3.187 -0.0169 -0.0395 -0.1045
    1DIPC   GL125407   7.543   2.882   3.628 -0.2189  0.1164  0.0459
    1DIPC   GL225408   7.368   3.100   3.855 -0.1447  0.0015  0.1093
    1DIPC   C1A25409   7.595   2.688   4.025  0.1834 -0.1799  0.4525
    1DIPC   D2A25410   7.804   2.648   4.472 -0.0569  0.0556  0.0053
    1DIPC   D3A25411   7.886   2.342   4.253 -0.0103 -0.1445 -0.0656
    1DIPC   C4A25412   7.643   2.101   4.051  0.0348 -0.2852  0.3119
    1DIPC   C1B25413   7.671   3.213   4.093  0.3014  0.2215  0.0734
    1DIPC   D2B25414   8.042   3.434   4.103 -0.4187 -0.0586  0.0366
    1DIPC   D3B25415   7.917   3.713   4.452 -0.2638  0.4675 -0.3325
    1DIPC   C4B25416   8.214   3.614   4.828  0.1013 -0.3477 -0.0456
    1DIPC   NC325417  15.028  17.910   2.265  0.0551  0.1202  0.3045
    1DIPC   PO425418  15.201  18.247   2.265  0.1460 -0.1021  0.2131
    1DIPC   GL125419  14.843  18.143   2.643 -0.3676 -0.0089 -0.1806
    1DIPC   GL225420  15.098  18.356   2.778 -0.0420  0.1909 -0.2918
    1DIPC   C1A25421  14.719  18.072   3.058  0.1362 -0.2510  0.1067
    1DIPC   D2A25422  14.473  17.710   3.295  0.0220 -0.1074  0.4351
    1DIPC   D3A25423  14.496  18.038   3.663 -0.0822 -0.0746  0.4079
    1DIPC   C4A25424  14.177  17.947   4.058  0.0800  0.1469  0.0693
    1DIPC   C1B25425  15.107  18.461   3.180 -0.1692 -0.2327 -0.1906
    1DIPC   D2B25426  14.991  18.688   3.541  0.2905 -0.1814  0.0865
    1DIPC   D3B25427  14.673  18.751   3.743  0.2474 -0.0865 -0.0860
    1DIPC   C4B25428  14.395  19.050   3.750 -0.1828 -0.0368  0.0531
    1DIPC   NC325429  18.940  14.477   2.503  0.2842 -0.1139  0.1490
    1DIPC   PO425430  19.324  14.539   2.756  0.1614 -0.0234 -0.0375
    1DIPC   GL125431  19.240  14.116   2.737  0.0291  0.0481 -0.0507
    1DIPC   GL225432  19.459  13.947   2.995  0.1502 -0.1532 -0.0006
    1DIPC   C1A25433  19.022  13.878   3.106  0.2138 -0.0866 -0.0718
    1DIPC   D2A25434  18.918  14.046   3.498 -0.3388 -0.0948  0.4186
    1DIPC   D3A25435  19.086  13.645   3.667  0.3274  0.1412 -0.0840
    1DIPC   C4A25436  19.398  13.650   4.075  0.2721  0.0222  0.3621
    1DIPC   C1B25437  19.354  14.224   3.395 -0.0499  0.0647  0.0200
    1DIPC   D2B25438  19.236  14.210   3.811  0.0164  0.1797 -0.1672
    1DIPC   D3B25439  18.891  13.913   4.041  0.2180 -0.1966 -0.0906
    1DIPC   C4B25440  19.052  13.754   4.446  0.0000 -0.3341  0.1128
    1DIPC   NC325441  20.586  30.321   3.193 -0.0753  0.1936 -0.1585
    1DIPC   PO425442  20.219   0.154   2.960  0.1585  0.0031 -0.0929
    1DIPC   GL125443  20.133   0.152   3.422 -0.0483 -0.2890 -0.0810
    1DIPC   GL225444  20.379  30.318   3.616 -0.3339  0.1951 -0.2120
    1DIPC   C1A25445  20.042   0.390   3.685 -0.1791  0.0114 -0.0503
    1DIPC   D2A25446  20.266   0.371   4.072 -0.2099 -0.1457 -0.3509
    1DIPC   D3A25447  20.045   0.112   4.373 -0.0911 -0.0809  0.0418
    1DIPC   C4A25448  19.820  30.208   4.381 -0.1101  0.0751  0.0661
    1DIPC   C1B25449  20.344  30.084   3.924 -0.1174 -0.1567 -0.2698
    1DIPC   D2B25450  20.698  30.036   4.153 -0.0621  0.3299  0.1502
    1DIPC   D3B25451  20.923   0.121   4.065  0.1530 -0.0258  0.2714
    1DIPC   C4B25452  21.229   0.406   4.105  0.0102  0.0849  0.1471
    1DIPC   NC325453  13.017  17.888   2.182 -0.1016 -0.3472 -0.0105
    1DIPC   PO425454  13.496  18.092   2.254  0.0945  0.0378  0.1703
    1DIPC   GL125455  13.207  18.371   2.572 -0.1274 -0.3698  0.0228
    1DIPC   GL225456  13.086  18.160   2.683  0.3738  0.0605 -0.2225
    1DIPC   C1A25457  13.177  18.517   3.093 -0.0284  0.1544 -0.0505
    1DIPC   D2A25458  13.216  18.955   3.282  0.0238  0.0103  0.4091
    1DIPC   D3A25459  12.971  18.979   3.536  0.1471  0.0844  0.1843
    1DIPC   C4A25460  12.878  18.896   3.930 -0.4663  0.0535 -0.0221
    1DIPC   C1B25461  13.396  18.100   2.979  0.2437  0.1064  0.1960
    1DIPC   D2B25462  13.754  18.189   2.903  0.0243 -0.0830 -0.0129
    1DIPC   D3B25463  14.119  18.332   3.183 -0.1345 -0.1709 -0.1497
    1DIPC   C4B25464  14.564  18.472   3.383 -0.0963 -0.0097  0.0089
    1DIPC   NC325465   0.755  27.580   3.251  0.1867 -0.1190 -0.0177
    1DIPC   PO425466   0.751  27.224   3.615 -0.2667 -0.1012  0.3399
    1DIPC   GL125467   0.804  27.058   4.068  0.0691 -0.2150  0.0034
    1DIPC   GL225468   0.734  27.370   4.299  0.0779 -0.3535 -0.0085
    1DIPC   C1A25469   0.849  26.968   4.454  0.1452  0.1090 -0.0810
    1DIPC   D2A25470   0.784  26.608   4.727  0.2997 -0.1362 -0.4405
    1DIPC   D3A25471   0.979  26.217   4.859 -0.3018 -0.0944  0.0852
    1DIPC   C4A25472   1.310  26.189   5.069 -0.3183  0.0526 -0.0120
    1DIPC   C1B25473   0.689  27.574   4.722 -0.1285 -0.1504 -0.0556
    1DIPC   D2B25474   0.724  27.589   5.171  0.1139 -0.3740 -0.0072
    1DIPC   D3B25475   0.871  28.047   5.101 -0.0261 -0.2131  0.3894
    1DIPC   C4B25476   0.705  28.377   5.394  0.1882  0.2060 -0.2865
    1DIPC   NC325477  15.296  25.188   2.780  0.1257 -0.0464  0.1870
    1DIPC   PO425478  15.646  25.541   2.748  0.0940  0.1960  0.1624
    1DIPC   GL125479  15.578  25.533   3.172 -0.3300  0.2038 -0.0683
    1DIPC   GL225480  15.250  25.500   3.172  0.1260  0.2006 -0.1058
    1DIPC   C1A25481  15.719  25.324   3.541 -0.0243 -0.0878  0.0965
    1DIPC   D2A25482  15.670  25.404   4.055 -0.0070 -0.2053  0.1778
    1DIPC   D3A25483  15.552  25.442   4.452 -0.4047  0.0293 -0.0617
    1DIPC   C4A25484  15.201  25.632   4.483 -0.0846  0.2418 -0.3424
    1DIPC   C1B25485  15.205  25.670   3.570  0.3573 -0.1693 -0.2114
    1DIPC   D2B25486  15.217  25.810   3.925 -0.0785  0.2159 -0.0311
    1DIPC   D3B25487  15.128  26.180   4.074 -0.0954 -0.1106 -0.1040
    1DIPC   C4B25488  15.077  26.147   4.492 -0.2502  0.3407 -0.1077
    1DIPC   NC325489  12.018   8.016   2.881 -0.1534  0.0559 -0.1871
    1DIPC   PO425490  12.164   7.719   3.009  0.2468  0.0055  0.0933
    1DIPC   GL125491  12.250   7.545   3.365 -0.1742 -0.2226 -0.0699
    1DIPC   GL225492  12.140   7.204   3.355 -0.1120 -0.0317 -0.1269
    1DIPC   C1A25493  12.214   7.649   3.830 -0.0004 -0.2366 -0.1893
    1DIPC   D2A25494  12.378   7.704   4.232  0.1404 -0.1314 -0.0546
    1DIPC   D3A25495  12.005   7.454   4.378 -0.1130 -0.1078 -0.0994
    1DIPC   C4A25496  11.673   7.418   4.705 -0.1334  0.2071 -0.0977
    1DIPC   C1B25497  12.121   7.158   3.802 -0.0829  0.0056  0.1570
    1DIPC   D2B25498  12.380   7.056   4.193 -0.1927 -0.1978 -0.2620
    1DIPC   D3B25499  12.305   6.808   4.527  0.1191  0.1891 -0.2744
    1DIPC   C4B25500  12.571   6.727   4.881 -0.3037  0.0027  0.1204
    1DIPC   NC325501  16.764   4.141   3.033 -0.2906  0.1430 -0.1539
    1DIPC   PO425502  17.235   4.143   2.927 -0.1172  0.0421 -0.0288
    1DIPC   GL125503  17.134   4.554   2.943  0.1179  0.2396  0.1386
    1DIPC   GL225504  17.347   4.797   2.831  0.0712 -0.1305  0.1147
    1DIPC   C1A25505  17.245   4.860   3.312  0.0088  0.2008  0.2314
    1DIPC   D2A25506  16.969   5.112   3.616  0.1566 -0.0941  0.0539
    1DIPC   D3A25507  17.238   5.541   3.467 -0.3064  0.0735 -0.0363
    1DIPC   C4A25508  17.047   5.850   3.569 -0.0912  0.0698  0.1306
    1DIPC   C1B25509  17.396   5.316   2.972 -0.2562  0.3223 -0.1662
    1DIPC   D2B25510  17.497   5.724   2.884  0.0569 -0.2774  0.1592
    1DIPC   D3B25511  17.986   5.702   2.976  0.2930  0.2699  0.2243
    1DIPC   C4B25512  18.173   6.148   3.127  0.2285 -0.3478  0.4359
    1DIPC   NC325513  13.591   5.311   2.582 -0.3658  0.2120  0.0608
    1DIPC   PO425514  13.233   5.394   2.451 -0.1466  0.3200  0.0150
    1DIPC   GL125515  13.123   5.445   2.886 -0.0009 -0.0205 -0.0347
    1DIPC   GL225516  13.115   5.226   3.039  0.0004  0.2521  0.0493
    1DIPC   C1A25517  13.146   5.824   3.169 -0.3802  0.0075 -0.0165
    1DIPC   D2A25518  13.080   5.909   3.554 -0.3380  0.0482  0.0704
    1DIPC   D3A25519  13.267   5.521   3.851  0.0221  0.1933 -0.3310
    1DIPC   C4A25520  13.390   5.444   4.298  0.1111  0.0669 -0.0512
    1DIPC   C1B25521  13.036   5.183   3.458 -0.2754  0.0164  0.0818
    1DIPC   D2B25522  12.907   4.764   3.793  0.2676 -0.2938 -0.0518
    1DIPC   D3B25523  13.113   4.504   3.680  0.1547  0.0357  0.0917
    1DIPC   C4B25524  13.292   4.280   3.863  0.0033 -0.2033  0.1350
    1DIPC   NC325525  26.574  26.906   3.197 -0.0373 -0.2660  0.1347
    1DIPC   PO425526  26.926  26.556   3.023  0.0266  0.1159  0.1111
    1DIPC   GL125527  27.339  26.522   3.233  0.1589  0.0391 -0.0990
    1DIPC   GL225528  27.471  26.780   3.420  0.0660 -0.0383  0.1929
    1DIPC   C1A25529  27.704  26.233   3.449 -0.1000  0.1141  0.3016
    1DIPC   D2A25530  27.882  26.080   3.843  0.2369 -0.0251 -0.1328
    1DIPC   D3A25531  27.881  25.757   3.439  0.2158 -0.0195  0.0871
    1DIPC   C4A25532  27.999  25.384   3.565  0.0088 -0.1488  0.2129
    1DIPC   C1B25533  27.317  27.065   3.698 -0.4699 -0.1501 -0.0418
    1DIPC   D2B25534  27.247  27.199   4.111  0.2055  0.0598  0.0351
    1DIPC   D3B25535  27.166  26.894   4.282  0.0641  0.0699  0.1118
    1DIPC   C4B25536  27.128  26.810   4.646  0.0441  0.1860 -0.1245
    1DIPC   NC325537   4.936   2.960   3.350 -0.1758  0.1798 -0.1848
    1DIPC   PO425538   5.343   2.982   3.361 -0.0497  0.0455  0.0413
    1DIPC   GL125539   5.279   2.961   3.791 -0.1737 -0.1570  0.1535
    1DIPC   GL225540   5.012   2.979   3.895  0.0399 -0.0966  0.0124
    1DIPC   C1A25541   5.295   2.836   4.239  0.0371 -0.1518  0.0720
    1DIPC   D2A25542   5.506   2.661   4.555 -0.0633 -0.0738  0.3070
    1DIPC   D3A25543   5.646   2.239   4.555 -0.3652 -0.3715  0.3041
    1DIPC   C4A25544   5.563   1.970   4.409 -0.1023 -0.0768  0.0027
    1DIPC   C1B25545   4.738   3.034   4.185  0.0112 -0.1474  0.0157
    1DIPC   D2B25546   4.376   2.952   4.499 -0.1146  0.0114  0.0011
    1DIPC   D3B25547   4.000   3.250   4.588 -0.2274  0.2702  0.3480
    1DIPC   C4B25548   3.845   3.546   4.319  0.3385 -0.3013 -0.1525
    1DIPC   NC325549  30.162  26.360   3.475 -0.2551 -0.0989 -0.0166
    1DIPC   PO425550   0.127  25.979   3.400  0.2319 -0.1477  0.2418
    1DIPC   GL125551  30.183  25.881   3.690 -0.0572 -0.0768 -0.2599
    1DIPC   GL225552  29.812  26.053   3.822  0.1652  0.1445  0.3319
    1DIPC   C1A25553  30.126  25.711   4.122  0.2909 -0.2054  0.0297
    1DIPC   D2A25554  30.071  25.673   4.530  0.0900 -0.1700 -0.0946
    1DIPC   D3A25555  30.262  25.312   4.549 -0.1096 -0.2137  0.1439
    1DIPC   C4A25556  29.909  25.228   4.779  0.2662  0.1076  0.0961
    1DIPC   C1B25557  29.767  26.079   4.275 -0.0586 -0.3140  0.0105
    1DIPC   D2B25558  29.831  26.085   4.805  0.3316  0.0071  0.0200
    1DIPC   D3B25559  29.364  26.168   4.862  0.2314 -0.0040 -0.1822
    1DIPC   C4B25560  29.009  26.091   4.619 -0.0745 -0.4062 -0.1279
    1DIPC   NC325561  22.549  23.198   2.369  0.1998  0.1127 -0.0185
    1DIPC   PO425562  22.768  22.901   2.460  0.1116  0.2899 -0.0715
    1DIPC   GL125563  22.581  23.049   2.911 -0.3890 -0.1158  0.0522
    1DIPC   GL225564  22.254  23.171   2.897 -0.0770 -0.1296 -0.0837
    1DIPC   C1A25565  22.378  22.891   3.328  0.2530 -0.2653 -0.0654
    1DIPC   D2A25566  22.161  22.603   3.693 -0.1373 -0.1056 -0.0402
    1DIPC   D3A25567  22.449  22.346   3.945 -0.0755  0.0462 -0.0865
    1DIPC   C4A25568  22.590  22.465   4.409  0.0575  0.1743 -0.0285
    1DIPC   C1B25569  22.019  23.548   2.948  0.1100 -0.0609 -0.3374
    1DIPC   D2B25570  21.678  23.872   2.870 -0.1973  0.0557 -0.0042
    1DIPC   D3B25571  21.864  24.036   3.169  0.3222 -0.0743 -0.1794
    1DIPC   C4B25572  21.722  24.057   3.636 -0.0482  0.4113  0.1361
    1DIPC   NC325573  23.558  26.365   3.317  0.0595  0.1088 -0.0488
    1DIPC   PO425574  23.119  26.652   3.462 -0.0161 -0.1454 -0.1653
    1DIPC   GL125575  23.190  26.737   3.830  0.2260 -0.1314 -0.1601
    1DIPC   GL225576  23.148  26.413   3.954 -0.3574  0.2166  0.3992
    1DIPC   C1A25577  23.306  26.805   4.306 -0.0564  0.1582 -0.0805
    1DIPC   D2A25578  23.454  27.066   4.757 -0.1417  0.0432  0.0462
    1DIPC   D3A25579  23.242  27.422   4.481 -0.0248  0.0448 -0.0081
    1DIPC   C4A25580  22.842  27.307   4.459 -0.1196  0.1881  0.0762
    1DIPC   C1B25581  23.401  26.168   4.217  0.0015 -0.2949 -0.0778
    1DIPC   D2B25582  23.428  26.150   4.619  0.1213  0.2261 -0.0739
    1DIPC   D3B25583  23.320  26.361   4.927 -0.0997 -0.0664  0.1144
    1DIPC   C4B25584  23.588  26.700   5.098  0.3110  0.0582 -0.0590
    1DIPC   NC325585  10.797  24.190   2.422 -0.0025  0.2071 -0.0491
    1DIPC   PO425586  10.520  23.797   2.358  0.0013  0.2534  0.2753
    1DIPC   GL125587  10.159  23.849   2.750  0.0183 -0.0618 -0.2868
    1DIPC   GL225588  10.174  23.553   2.885  0.0733  0.0033 -0.2574
    1DIPC   C1A25589   9.779  23.990   2.892  0.3497  0.0790  0.1532
    1DIPC   D2A25590   9.352  23.999   2.788  0.0487 -0.0045 -0.4261
    1DIPC   D3A25591   8.954  23.998   2.922  0.2445  0.3545  0.0079
    1DIPC   C4A25592   8.668  23.888   3.255 -0.0448  0.1077  0.0354
    1DIPC   C1B25593   9.852  23.594   3.175 -0.3053 -0.2197  0.0747
    1DIPC   D2B25594   9.358  23.630   3.162 -0.0121 -0.1101  0.4974
    1DIPC   D3B25595   9.503  23.731   3.637 -0.0975 -0.1595  0.0135
    1DIPC   C4B25596   9.692  24.070   3.721  0.0008 -0.1388  0.2947
    1DIPC   NC325597  21.612  19.033   1.294 -0.1401  0.1089 -0.2072
    1DIPC   PO425598  22.016  18.940   1.556  0.1050  0.0321  0.0810
    1DIPC   GL125599  21.872  18.963   1.997 -0.2841 -0.0240 -0.2542
    1DIPC   GL225600  22.074  19.153   2.039 -0.1603 -0.0096  0.0124
    1DIPC   C1A25601  21.511  19.025   2.299  0.2051  0.1545 -0.0505
    1DIPC   D2A25602  21.531  19.050   2.662 -0.3855  0.1031 -0.0316
    1DIPC   D3A25603  21.129  18.923   2.619  0.0938  0.1087 -0.3429
    1DIPC   C4A25604  20.810  19.007   2.782 -0.0416  0.0662 -0.1835
    1DIPC   C1B25605  22.033  19.112   2.497 -0.1636 -0.0075  0.1857
    1DIPC   D2B25606  22.307  19.188   2.737 -0.3798 -0.0450 -0.0156
    1DIPC   D3B25607  22.804  19.027   2.632  0.2310  0.5484  0.0921
    1DIPC   C4B25608  23.244  19.177   2.781 -0.0795 -0.1340 -0.0248
    1DIPC   NC325609  25.005  25.705   2.923  0.1394  0.1457  0.0373
    1DIPC   PO425610  24.946  25.247   3.038  0.0862  0.2441  0.0083
    1DIPC   GL125611  25.022  25.047   3.471  0.0833 -0.1208 -0.2317
    1DIPC   GL225612  25.070  24.809   3.586  0.0722 -0.0934  0.0133
    1DIPC   C1A25613  25.085  25.194   3.905 -0.2985  0.1706  0.4675
    1DIPC   D2A25614  25.049  25.400   4.215 -0.3127  0.1495 -0.1712
    1DIPC   D3A25615  25.559  25.523   4.122  0.1239 -0.0726  0.1596
    1DIPC   C4A25616  25.810  25.249   4.375  0.1406 -0.1128  0.3962
    1DIPC   C1B25617  25.126  24.686   3.990  0.0051 -0.3810 -0.1692
    1DIPC   D2B25618  25.060  24.521   4.477  0.2149  0.2394 -0.1482
    1DIPC   D3B25619  24.693  24.386   4.582  0.2354  0.1712  0.2844
    1DIPC   C4B25620  24.241  24.524   4.661 -0.3508  0.0729 -0.0094
    1DIPC   NC325621  21.181  20.516   1.940 -0.1826 -0.0293 -0.0111
    1DIPC   PO425622  20.753  20.718   1.857 -0.1051  0.1042 -0.2570
    1DIPC   GL125623  20.668  20.762   2.388 -0.1389 -0.1125  0.3440
    1DIPC   GL225624  20.412  20.684   2.615  0.2603  0.0347  0.0603
    1DIPC   C1A25625  20.832  20.502   2.828 -0.1005  0.0552 -0.3030
    1DIPC   D2A25626  21.010  20.707   3.156 -0.0775  0.2664  0.0598
    1DIPC   D3A25627  21.104  20.523   3.549 -0.2083 -0.1072  0.3060
    1DIPC   C4A25628  21.033  20.689   3.968 -0.3136 -0.2664 -0.2041
    1DIPC   C1B25629  20.321  20.758   3.124 -0.0183 -0.2576 -0.3470
    1DIPC   D2B25630  20.219  20.558   3.491 -0.0138 -0.1818  0.2157
    1DIPC   D3B25631  20.456  20.520   3.809  0.0680 -0.0528 -0.0471
    1DIPC   C4B25632  20.713  20.257   3.871  0.1442  0.2484 -0.0882
    1DIPC   NC325633  11.753   5.097   2.243  0.0615 -0.1186  0.0593
    1DIPC   PO425634  11.497   5.369   2.366  0.1951  0.1425  0.1094
    1DIPC   GL125635  11.507   5.712   2.580  0.3762  0.0557 -0.1589
    1DIPC   GL225636  11.419   5.997   2.439  0.1305  0.1409 -0.2014
    1DIPC   C1A25637  11.750   5.877   2.917  0.2844  0.2094 -0.2270
    1DIPC   D2A25638  11.768   5.840   3.343 -0.1238 -0.0684  0.3683
    1DIPC   D3A25639  11.977   6.066   3.601 -0.0556 -0.0054  0.0816
    1DIPC   C4A25640  11.987   6.067   3.983  0.0986 -0.4412 -0.1039
    1DIPC   C1B25641  11.036   5.856   2.785  0.2007  0.0297  0.1976
    1DIPC   D2B25642  10.770   5.655   3.196 -0.0992  0.1812 -0.0500
    1DIPC   D3B25643  11.027   5.345   3.323  0.1211 -0.0734 -0.1018
    1DIPC   C4B25644  10.982   5.193   3.765  0.0609 -0.0498 -0.2708
    1DIPC   NC325645  22.360  19.422   1.209  0.0243  0.2977  0.1629
    1DIPC   PO425646  22.390  19.703   1.633 -0.0036 -0.2049 -0.2383
    1DIPC   GL125647  22.174  19.631   2.018 -0.5588 -0.1362  0.5339
    1DIPC   GL225648  22.019  19.892   2.136 -0.0891 -0.1596 -0.0595
    1DIPC   C1A25649  22.248  19.679   2.520  0.1222  0.0989  0.0618
    1DIPC   D2A25650  22.206  19.635   2.926 -0.3079 -0.1346  0.4747
    1DIPC   D3A25651  22.160  19.863   3.283 -0.2685 -0.1790  0.1818
    1DIPC   C4A25652  21.939  20.140   3.408 -0.1238 -0.1079  0.1415
    1DIPC   C1B25653  22.089  20.151   2.550  0.1847  0.1459  0.0680
    1DIPC   D2B25654  21.814  20.463   2.802 -0.0245 -0.1371 -0.0788
    1DIPC   D3B25655  22.145  20.468   3.007 -0.0451 -0.3330 -0.1862
    1DIPC   C4B25656  22.658  20.601   3.070 -0.4178 -0.0149  0.0663
    1DIPC   NC325657  28.084   1.543   3.730  0.2172 -0.2027 -0.0209
    1DIPC   PO425658  27.918   1.803   4.004  0.0244 -0.0456  0.3061
    1DIPC   GL125659  27.585   1.713   4.199  0.1642 -0.0400  0.0483
    1DIPC   GL225660  27.452   1.945   4.196 -0.1328 -0.2929  0.0859
    1DIPC   C1A25661  27.299   1.469   4.383 -0.1596 -0.1866  0.2101
    1DIPC   D2A25662  26.919   1.211   4.313  0.1317 -0.3759  0.3732
    1DIPC   D3A25663  26.768   1.110   4.744  0.0755 -0.1091 -0.3683
    1DIPC   C4A25664  26.729   0.643   4.885  0.0610 -0.0917  0.1918
    1DIPC   C1B25665  27.472   1.931   4.639  0.1616 -0.1345  0.0913
    1DIPC   D2B25666  27.465   1.677   4.979  0.0735 -0.0552  0.0025
    1DIPC   D3B25667  27.725   1.773   5.374 -0.0326 -0.0147 -0.1718
    1DIPC   C4B25668  27.643   1.466   5.729 -0.0225 -0.1120  0.2251
    1DIPC   NC325669  16.185  28.712   3.211 -0.2753  0.2468  0.1475
    1DIPC   PO425670  15.995  28.398   3.219 -0.0605 -0.1308  0.1499
    1DIPC   GL125671  16.098  28.247   3.598  0.0215  0.1161 -0.3131
    1DIPC   GL225672  16.020  28.511   3.722  0.1352 -0.1763  0.2744
    1DIPC   C1A25673  16.361  28.438   4.019 -0.1073 -0.0097 -0.2021
    1DIPC   D2A25674  16.835  28.476   4.125 -0.1745  0.0925  0.1772
    1DIPC   D3A25675  17.212  28.367   4.123  0.0062  0.0021  0.0376
    1DIPC   C4A25676  17.540  28.544   4.324  0.2331 -0.5815 -0.2522
    1DIPC   C1B25677  15.883  28.196   4.029  0.1184 -0.1254 -0.0350
    1DIPC   D2B25678  15.784  27.816   3.924 -0.1079  0.1082  0.6283
    1DIPC   D3B25679  15.972  27.657   4.335  0.0305 -0.2140 -0.0110
    1DIPC   C4B25680  15.719  27.459   4.574  0.0630 -0.2609  0.0048
    1DIPC   NC325681  26.337  28.765   3.416 -0.0517 -0.4118  0.1433
    1DIPC   PO425682  25.926  28.938   3.591  0.1560 -0.2233 -0.1034
    1DIPC   GL125683  25.858  28.779   3.942  0.1343 -0.0072  0.1868
    1DIPC   GL225684  25.522  28.945   3.964  0.0318  0.2861  0.2174
    1DIPC   C1A25685  25.753  28.654   4.344  0.1426 -0.1636  0.1329
    1DIPC   D2A25686  25.995  28.810   4.701 -0.3258  0.0590 -0.0899
    1DIPC   D3A25687  25.979  28.575   5.167 -0.1423 -0.1138 -0.3154
    1DIPC   C4A25688  25.558  28.536   5.304 -0.1746 -0.1785  0.0374
    1DIPC   C1B25689  25.127  28.972   4.219 -0.2291  0.0174  0.1724
    1DIPC   D2B25690  25.023  29.099   4.602 -0.5250  0.0393 -0.0693
    1DIPC   D3B25691  24.836  28.729   4.591  0.0823 -0.1966  0.3245
    1DIPC   C4B25692  24.611  28.326   4.726  0.1423  0.3494 -0.0696
    1DIPC   NC325693  27.707   8.273   2.899 -0.1968 -0.0240 -0.1463
    1DIPC   PO425694  28.137   8.043   3.022 -0.1100 -0.1380  0.1846
    1DIPC   GL125695  28.143   7.944   3.438 -0.3312 -0.4075 -0.1786
    1DIPC   GL225696  28.557   8.021   3.455  0.1618  0.2957  0.0063
    1DIPC   C1A25697  27.794   7.993   3.810  0.1846 -0.1733  0.0101
    1DIPC   D2A25698  27.379   7.950   3.720  0.2249  0.2286  0.0952
    1DIPC   D3A25699  27.503   7.670   4.047  0.1691  0.2094 -0.1208
    1DIPC   C4A25700  27.421   7.642   4.536  0.3555 -0.0695  0.1927
    1DIPC   C1B25701  28.314   8.118   3.858  0.0428 -0.2091 -0.0701
    1DIPC   D2B25702  28.348   7.966   4.149  0.1282 -0.2811  0.1814
    1DIPC   D3B25703  27.944   7.921   4.327 -0.2488  0.5026 -0.1437
    1DIPC   C4B25704  28.035   7.565   4.671  0.2374 -0.1078  0.1911
    1DIPC   NC325705   1.171   0.411   3.089  0.1240 -0.0302 -0.0710
    1DIPC   PO425706   1.481   0.553   3.391  0.1472  0.2697  0.0341
    1DIPC   GL125707   1.791   0.484   3.807 -0.3710  0.2120 -0.0631
    1DIPC   GL225708   1.743   0.683   4.084 -0.1490  0.2088 -0.2122
    1DIPC   C1A25709   2.204   0.221   4.010 -0.0781 -0.0186  0.2391
    1DIPC   D2A25710   2.628   0.363   4.021  0.0598 -0.2377  0.2355
    1DIPC   D3A25711   2.550   0.660   4.386 -0.1695  0.2334  0.1385
    1DIPC   C4A25712   2.619   0.693   4.912 -0.0130  0.1298  0.0378
    1DIPC   C1B25713   1.665   0.723   4.500 -0.1002  0.1569 -0.0182
    1DIPC   D2B25714   1.666   0.992   4.915  0.0966  0.0870  0.0280
    1DIPC   D3B25715   1.754   0.984   5.396  0.0118 -0.0929  0.0085
    1DIPC   C4B25716   2.126   1.180   5.429  0.1333  0.0459 -0.0687
    1DIPC   NC325717  27.810   4.827   3.499 -0.0375 -0.0206 -0.1495
    1DIPC   PO425718  27.968   4.378   3.548  0.0439 -0.2060  0.0504
    1DIPC   GL125719  27.830   4.433   3.891  0.3445  0.1615  0.1645
    1DIPC   GL225720  28.095   4.361   4.109 -0.0049  0.0324 -0.1899
    1DIPC   C1A25721  27.766   4.821   4.161 -0.1212  0.3768  0.0448
    1DIPC   D2A25722  27.375   4.983   4.290 -0.1934 -0.1424  0.1036
    1DIPC   D3A25723  27.117   5.145   4.145  0.0796 -0.2677  0.1296
    1DIPC   C4A25724  26.887   5.345   4.353  0.0776 -0.0876  0.1459
    1DIPC   C1B25725  28.122   4.697   4.474  0.3533  0.0188  0.0382
    1DIPC   D2B25726  28.381   4.863   4.733 -0.2461 -0.0520 -0.0825
    1DIPC   D3B25727  28.446   4.999   5.161 -0.3334  0.0274 -0.0502
    1DIPC   C4B25728  28.800   4.938   5.246 -0.2884  0.1141 -0.0751
    1DIPC   NC325729   5.271   8.507   2.657 -0.0346  0.0844 -0.1226
    1DIPC   PO425730   5.636   8.150   2.827 -0.0477 -0.1550 -0.2921
    1DIPC   GL125731   5.205   8.164   2.998 -0.1400  0.2989 -0.1134
    1DIPC   GL225732   5.065   7.853   2.935 -0.2840  0.0894  0.1052
    1DIPC   C1A25733   4.874   8.185   3.284 -0.1216  0.1153  0.1333
    1DIPC   D2A25734   4.730   8.115   3.671  0.1335 -0.0363 -0.0074
    1DIPC   D3A25735   4.521   7.743   3.650 -0.0733  0.1482 -0.2314
    1DIPC   C4A25736   4.168   7.619   3.782  0.2276  0.1046 -0.1921
    1DIPC   C1B25737   4.999   7.686   3.405  0.2008  0.2010  0.3278
    1DIPC   D2B25738   5.083   7.728   3.789 -0.2111 -0.2583 -0.2726
    1DIPC   D3B25739   4.929   8.041   4.131 -0.0336 -0.0434 -0.1248
    1DIPC   C4B25740   4.993   8.468   4.170 -0.0559 -0.1336 -0.3580
    1DIPC   NC325741  20.927  25.964   3.014  0.2745 -0.0464  0.0156
    1DIPC   PO425742  20.713  25.663   3.232 -0.0277  0.1969  0.2142
    1DIPC   GL125743  20.837  25.502   3.593 -0.0630  0.3056 -0.1516
    1DIPC   GL225744  20.640  25.627   3.791 -0.0421  0.0599 -0.3920
    1DIPC   C1A25745  20.701  25.135   3.839  0.3336  0.0717 -0.0362
    1DIPC   D2A25746  20.744  24.744   4.158  0.0323 -0.1217 -0.2036
    1DIPC   D3A25747  21.131  25.046   4.144 -0.1694 -0.1050  0.2509
    1DIPC   C4A25748  21.183  25.509   4.038  0.1142 -0.0038 -0.1203
    1DIPC   C1B25749  20.310  25.746   4.023 -0.1220 -0.0363 -0.0608
    1DIPC   D2B25750  20.114  25.789   4.412  0.1314 -0.1237  0.1846
    1DIPC   D3B25751  20.387  25.500   4.565 -0.0517  0.2291 -0.0789
    1DIPC   C4B25752  20.531  25.208   4.297  0.0238 -0.1734 -0.0898
    1DIPC   NC325753  26.300  27.184   3.672  0.0999 -0.1672 -0.2628
    1DIPC   PO425754  26.082  27.046   3.437  0.2466  0.0916  0.3210
    1DIPC   GL125755  25.981  26.643   3.630  0.0446  0.1599 -0.0334
    1DIPC   GL225756  25.943  26.906   3.970 -0.0155  0.2072  0.0819
    1DIPC   C1A25757  25.818  26.340   3.972  0.1161 -0.0316 -0.1786
    1DIPC   D2A25758  25.785  26.232   4.409 -0.1804 -0.1278 -0.0492
    1DIPC   D3A25759  25.441  26.447   4.398  0.0262  0.0870  0.1437
    1DIPC   C4A25760  25.214  26.418   4.841 -0.1054  0.3364  0.1743
    1DIPC   C1B25761  25.908  26.756   4.318  0.0361  0.3795  0.1293
    1DIPC   D2B25762  25.786  26.720   4.733 -0.1940  0.0531  0.3673
    1DIPC   D3B25763  25.444  26.884   4.689 -0.2372 -0.2659 -0.1990
    1DIPC   C4B25764  25.234  27.205   4.875  0.1785  0.2241 -0.1436
    1DIPC   NC325765  16.101  16.811   2.922  0.3123  0.3333  0.0068
    1DIPC   PO425766  16.513  16.650   2.702  0.1951  0.1004  0.2167
    1DIPC   GL125767  16.589  16.587   3.184  0.0493  0.0293 -0.3149
    1DIPC   GL225768  16.805  16.779   3.367  0.0585  0.0095  0.2452
    1DIPC   C1A25769  16.686  16.488   3.734  0.2447 -0.1381 -0.1304
    1DIPC   D2A25770  16.783  16.356   4.038  0.1583 -0.0401 -0.0680
    1DIPC   D3A25771  16.793  16.629   4.286  0.0517 -0.0723 -0.0576
    1DIPC   C4A25772  17.214  16.823   4.432  0.2903 -0.1602 -0.0696
    1DIPC   C1B25773  16.725  17.175   3.337  0.2397 -0.1186 -0.0932
    1DIPC   D2B25774  16.494  17.443   3.480  0.1603 -0.0864  0.3131
    1DIPC   D3B25775  16.319  17.423   3.839 -0.1415 -0.2703  0.1037
    1DIPC   C4B25776  16.535  17.671   4.245 -0.1642 -0.0020 -0.0562
    1DIPC   NC325777  30.209   9.156   2.652  0.0558  0.2641 -0.1135
    1DIPC   PO425778  30.262   9.068   3.037 -0.1866  0.3566  0.0417
    1DIPC   GL125779  30.163   9.055   3.433  0.0863  0.1846  0.0336
    1DIPC   GL225780  29.890   9.202   3.412 -0.1659  0.3225  0.1409
    1DIPC   C1A25781  29.917   8.735   3.727 -0.2760 -0.3269 -0.2136
    1DIPC   D2A25782  29.674   8.456   3.871  0.0956 -0.2108  0.0164
    1DIPC   D3A25783  29.611   8.789   4.087 -0.0652 -0.0173 -0.1160
    1DIPC   C4A25784  29.733   8.769   4.483  0.3417  0.0937 -0.3316
    1DIPC   C1B25785  29.730   9.259   3.877  0.2581 -0.0027 -0.1024
    1DIPC   D2B25786  29.765   9.253   4.278 -0.3161  0.1755  0.1412
    1DIPC   D3B25787  29.291   9.178   4.567 -0.2861  0.0346  0.2264
    1DIPC   C4B25788  28.869   9.130   4.633  0.0444  0.2764  0.1097
    1DIPC   NC325789  11.743   2.874   2.735  0.2661  0.0383 -0.0283
    1DIPC   PO425790  12.079   3.081   2.588 -0.0151 -0.0422 -0.1443
    1DIPC   GL125791  12.096   3.085   3.094 -0.2640  0.3175  0.0382
    1DIPC   GL225792  12.143   3.466   3.162  0.1457  0.1631 -0.1557
    1DIPC   C1A25793  12.268   2.941   3.443 -0.1239 -0.2507  0.2149
    1DIPC   D2A25794  12.437   2.676   3.768  0.4836 -0.2710 -0.1039
    1DIPC   D3A25795  12.137   2.504   4.160  0.4598  0.0107 -0.2056
    1DIPC   C4A25796  12.314   2.213   4.460 -0.3645 -0.2148  0.1011
    1DIPC   C1B25797  12.162   3.721   3.484 -0.0417 -0.0780 -0.0111
    1DIPC   D2B25798  11.824   4.016   3.627 -0.2921  0.1382 -0.4394
    1DIPC   D3B25799  11.716   3.988   4.066  0.1764  0.2440 -0.0432
    1DIPC   C4B25800  12.097   3.860   4.299 -0.0841 -0.3511  0.3564
    1DIPC   NC325801   5.962   1.026   3.585  0.0544 -0.1375 -0.1175
    1DIPC   PO425802   6.385   0.828   3.378  0.0052  0.0888  0.0883
    1DIPC   GL125803   6.574   0.766   3.711 -0.4190  0.1566  0.0206
    1DIPC   GL225804   6.330   0.768   3.948  0.0680  0.0668 -0.1728
    1DIPC   C1A25805   6.733   0.395   3.890  0.1516 -0.0210  0.2970
    1DIPC   D2A25806   6.883   0.111   4.171 -0.2658 -0.0653 -0.3287
    1DIPC   D3A25807   7.169   0.367   4.322 -0.2281  0.2359  0.0205
    1DIPC   C4A25808   7.135   0.605   4.725  0.1983 -0.1206  0.1421
    1DIPC   C1B25809   6.233   0.355   4.266  0.0146  0.2022 -0.0469
    1DIPC   D2B25810   6.414  30.244   4.436  0.1836 -0.1216 -0.0241
    1DIPC   D3B25811   6.825  30.186   4.666 -0.3121 -0.0550 -0.0857
    1DIPC   C4B25812   6.997   0.180   4.966 -0.2653 -0.1879 -0.1279
    1DIPC   NC325813  13.830  19.239   1.904 -0.1706  0.1347 -0.0850
    1DIPC   PO425814  14.150  19.468   2.108 -0.3755  0.2020  0.2808
    1DIPC   GL125815  14.341  19.301   2.550 -0.1338  0.0182 -0.0122
    1DIPC   GL225816  14.325  18.930   2.561  0.2994 -0.1392 -0.1312
    1DIPC   C1A25817  14.316  19.256   3.005 -0.2498  0.1127 -0.1591
    1DIPC   D2A25818  14.307  19.362   3.446 -0.0760  0.2778  0.1471
    1DIPC   D3A25819  13.921  19.568   3.553  0.1504 -0.3507  0.1041
    1DIPC   C4A25820  13.907  20.040   3.657 -0.1558  0.0999 -0.0361
    1DIPC   C1B25821  14.123  18.731   2.939 -0.2706 -0.2832 -0.0140
    1DIPC   D2B25822  14.156  18.784   3.382 -0.2096 -0.2419 -0.3218
    1DIPC   D3B25823  13.740  18.729   3.328 -0.3659  0.2723 -0.2983
    1DIPC   C4B25824  13.570  18.242   3.446  0.2646  0.0576 -0.1794
    1DIPC   NC325825  16.419  12.113   3.612  0.0380 -0.1083  0.1347
    1DIPC   PO425826  16.062  11.867   3.654 -0.1382 -0.1179 -0.0603
    1DIPC   GL125827  16.138  11.887   4.076  0.2773  0.0657  0.1234
    1DIPC   GL225828  16.505  11.734   4.068  0.2080  0.1640  0.1626
    1DIPC   C1A25829  15.980  11.803   4.504 -0.2351  0.2926 -0.3884
    1DIPC   D2A25830  16.067  11.687   4.898 -0.1912  0.0783  0.0693
    1DIPC   D3A25831  16.484  11.946   4.970  0.1268  0.3464  0.1244
    1DIPC   C4A25832  16.506  12.425   4.926  0.3682 -0.2431 -0.2467
    1DIPC   C1B25833  16.469  12.034   4.422 -0.0059  0.2760  0.0429
    1DIPC   D2B25834  16.566  12.544   4.402  0.0753  0.1417  0.0521
    1DIPC   D3B25835  16.409  12.912   4.567  0.3838  0.0086  0.1697
    1DIPC   C4B25836  16.538  12.913   5.065 -0.0862 -0.3462  0.1468
    1DIPC   NC325837  24.448   1.047   2.865  0.3652 -0.1753  0.2432
    1DIPC   PO425838  24.140   1.139   3.321 -0.0722  0.0256 -0.0389
    1DIPC   GL125839  23.964   0.884   3.640  0.1643  0.2441 -0.0901
    1DIPC   GL225840  23.814   0.987   3.862 -0.2378 -0.2959 -0.2524
    1DIPC   C1A25841  24.026   0.552   3.976  0.0509 -0.1730 -0.0667
    1DIPC   D2A25842  23.775   0.189   4.108  0.0825 -0.1085  0.1120
    1DIPC   D3A25843  23.929   0.412   4.483 -0.1918  0.1137 -0.0696
    1DIPC   C4A25844  23.881   0.735   4.867  0.0065 -0.1371 -0.1540
    1DIPC   C1B25845  23.561   1.237   4.191 -0.0946 -0.1022  0.0570
    1DIPC   D2B25846  23.446   1.608   4.366 -0.0415 -0.2593  0.1752
    1DIPC   D3B25847  23.589   1.698   4.683 -0.0177 -0.1525  0.3511
    1DIPC   C4B25848  23.562   2.080   4.823  0.0151 -0.0833  0.2512
    1DIPC   NC325849  28.850   9.063   3.293 -0.2064  0.1278  0.0080
    1DIPC   PO425850  29.203   9.194   2.983 -0.1046 -0.0648  0.0369
    1DIPC   GL125851  29.417   9.281   3.395  0.1203 -0.0319  0.2184
    1DIPC   GL225852  29.320   8.965   3.609 -0.2631  0.1671 -0.0787
    1DIPC   C1A25853  29.354   9.532   3.652 -0.0997  0.0724 -0.0167
    1DIPC   D2A25854  29.441   9.924   3.879  0.3766 -0.0933 -0.3574
    1DIPC   D3A25855  29.266   9.677   4.131  0.0116  0.0540  0.1107
    1DIPC   C4A25856  29.433   9.636   4.554  0.2462 -0.0273 -0.0713
    1DIPC   C1B25857  29.252   9.175   4.007  0.0666 -0.2272  0.0150
    1DIPC   D2B25858  28.891   9.324   4.202  0.2034  0.3028  0.0986
    1DIPC   D3B25859  28.670   9.663   4.113  0.0223 -0.1262  0.1814
    1DIPC   C4B25860  28.399   9.887   4.370 -0.0480 -0.3922 -0.0114
    1DIPC   NC325861   1.242   5.560   2.920 -0.2008  0.0808 -0.0246
    1DIPC   PO425862   1.576   5.873   2.784  0.1798  0.3078  0.2010
    1DIPC   GL125863   1.424   5.991   3.146 -0.1467  0.1257 -0.0183
    1DIPC   GL225864   1.605   5.961   3.455 -0.1786 -0.0866 -0.1270
    1DIPC   C1A25865   1.275   6.393   3.306  0.0422  0.0764 -0.0096
    1DIPC   D2A25866   1.433   6.823   3.456 -0.1411 -0.0242 -0.0253
    1DIPC   D3A25867   1.469   6.685   3.845 -0.2606  0.1817 -0.3672
    1DIPC   C4A25868   1.919   6.781   3.905  0.5299  0.0945 -0.3567
    1DIPC   C1B25869   1.823   6.470   3.459 -0.0537  0.0791 -0.1493
    1DIPC   D2B25870   1.788   6.808   3.164 -0.4362  0.1360 -0.0386
    1DIPC   D3B25871   2.293   6.919   3.387 -0.0326  0.1576  0.0283
    1DIPC   C4B25872   2.400   6.913   3.877 -0.1058 -0.0019  0.1049
    1DIPC   NC325873   6.054  29.523   3.157 -0.0919 -0.1615 -0.0366
    1DIPC   PO425874   6.337  29.253   3.342  0.3081 -0.0801 -0.2506
    1DIPC   GL125875   6.383  29.030   3.761  0.2146  0.2316 -0.1530
    1DIPC   GL225876   6.107  28.924   3.936  0.0828 -0.1496 -0.3400
    1DIPC   C1A25877   6.652  28.882   4.084 -0.0718 -0.0151 -0.2263
    1DIPC   D2A25878   6.763  29.046   4.485  0.3912  0.3442  0.1244
    1DIPC   D3A25879   6.858  29.253   4.945 -0.0453  0.0637 -0.2723
    1DIPC   C4A25880   6.920  29.636   5.214  0.1200  0.0917  0.1638
    1DIPC   C1B25881   5.860  28.530   4.095 -0.0090 -0.0931  0.1830
    1DIPC   D2B25882   5.829  28.301   4.477 -0.3098 -0.1154 -0.2005
    1DIPC   D3B25883   6.085  28.416   4.739  0.0081 -0.0485  0.1631
    1DIPC   C4B25884   6.323  28.666   4.985 -0.1127  0.1073  0.0917
    1DIPC   NC325885  19.941   5.102   2.963  0.1708  0.1898  0.2079
    1DIPC   PO425886  19.718   5.253   2.750  0.1024 -0.1205  0.3228
    1DIPC   GL125887  19.349   5.262   2.979 -0.0183  0.1957  0.1240
    1DIPC   GL225888  19.488   5.389   3.318 -0.2598  0.2733 -0.2632
    1DIPC   C1A25889  19.161   4.957   3.133 -0.0618 -0.0771 -0.0573
    1DIPC   D2A25890  18.722   4.630   3.064 -0.3124  0.3678  0.0148
    1DIPC   D3A25891  18.791   4.470   3.469  0.0201  0.0673 -0.0490
    1DIPC   C4A25892  18.829   4.127   3.589 -0.0671 -0.1190  0.0965
    1DIPC   C1B25893  19.866   5.520   3.471 -0.0422  0.5864  0.0688
    1DIPC   D2B25894  20.314   5.413   3.411  0.1862 -0.1293  0.1971
    1DIPC   D3B25895  20.473   5.582   3.755  0.1709 -0.2793 -0.0941
    1DIPC   C4B25896  20.361   5.456   4.198 -0.2532 -0.1811 -0.2770
    1DIPC   NC325897  19.045  11.524   2.696  0.0295  0.1376  0.0858
    1DIPC   PO425898  18.759  11.177   2.855  0.0183  0.4690  0.2497
    1DIPC   GL125899  18.597  11.257   3.271  0.1909  0.1915 -0.0288
    1DIPC   GL225900  18.740  10.921   3.436  0.0131 -0.1506 -0.3295
    1DIPC   C1A25901  18.622  11.362   3.758 -0.4036 -0.0714  0.1035
    1DIPC   D2A25902  18.566  11.661   4.081  0.0899  0.1868 -0.0198
    1DIPC   D3A25903  18.325  12.038   4.288 -0.1675  0.3166  0.0861
    1DIPC   C4A25904  17.953  11.996   4.642  0.0701  0.4606  0.3659
    1DIPC   C1B25905  18.710  10.927   3.868  0.2731  0.1255 -0.0956
    1DIPC   D2B25906  18.809  10.796   4.244  0.1515 -0.2269 -0.0086
    1DIPC   D3B25907  19.132  11.104   4.413  0.0962  0.0454  0.0635
    1DIPC   C4B25908  18.836  11.305   4.723 -0.2102  0.0400 -0.0757
    1DIPC   NC325909  30.002   0.692   3.785 -0.0051  0.1153  0.2394
    1DIPC   PO425910  29.847   0.284   3.647  0.1436 -0.0795  0.2718
    1DIPC   GL125911  29.866   0.068   4.018  0.1259 -0.0641  0.2601
    1DIPC   GL225912  29.595   0.062   4.178  0.0296 -0.1476 -0.0467
    1DIPC   C1A25913  29.811  29.989   4.124  0.0948 -0.0252 -0.0854
    1DIPC   D2A25914  29.787  29.583   4.133 -0.1082  0.0189 -0.0760
    1DIPC   D3A25915  29.423  29.300   4.124  0.0970 -0.1405  0.0422
    1DIPC   C4A25916  29.344  29.140   4.476 -0.1901  0.0123 -0.1426
    1DIPC   C1B25917  29.474   0.306   4.560 -0.1459 -0.0051 -0.0479
    1DIPC   D2B25918  29.609   0.346   4.934 -0.5461  0.0318 -0.2583
    1DIPC   D3B25919  29.971   0.220   5.228 -0.0984 -0.0530  0.2060
    1DIPC   C4B25920  29.980   0.538   5.592  0.0837  0.0303 -0.2664
    1DIPC   NC325921  14.367  23.095   2.252 -0.0420  0.0618  0.0754
    1DIPC   PO425922  14.452  22.961   2.710 -0.1203 -0.3867  0.0046
    1DIPC   GL125923  14.266  22.820   3.117  0.1068 -0.0171  0.1845
    1DIPC   GL225924  14.545  22.698   3.143  0.2152  0.0814  0.3675
    1DIPC   C1A25925  14.168  22.910   3.469  0.2057 -0.0057 -0.0585
    1DIPC   D2A25926  14.412  23.008   3.812 -0.0920 -0.3363  0.3511
    1DIPC   D3A25927  14.202  23.059   4.182  0.1658  0.2169  0.2245
    1DIPC   C4A25928  13.858  22.758   4.429  0.1704 -0.2598  0.0877
    1DIPC   C1B25929  14.689  23.038   3.368 -0.1938  0.1917 -0.1572
    1DIPC   D2B25930  14.743  23.407   3.711 -0.0542 -0.3065  0.1030
    1DIPC   D3B25931  15.170  23.587   3.642  0.1903 -0.0116  0.0185
    1DIPC   C4B25932  15.042  23.907   3.342  0.1864 -0.1399  0.1880
    1DIPC   NC325933  10.929   9.417   3.127 -0.1966  0.2309 -0.2750
    1DIPC   PO425934  11.150   9.803   3.165  0.1818  0.0772 -0.2380
    1DIPC   GL125935  11.181   9.760   3.573 -0.0478  0.1554 -0.1365
    1DIPC   GL225936  10.983   9.565   3.632  0.1121 -0.0235  0.0906
    1DIPC   C1A25937  11.387   9.885   3.982 -0.1626 -0.0776  0.0414
    1DIPC   D2A25938  11.698  10.234   4.037 -0.0181 -0.1534 -0.0048
    1DIPC   D3A25939  11.953  10.166   4.330 -0.0148  0.1785  0.0943
    1DIPC   C4A25940  12.086   9.801   4.646  0.0656 -0.0030  0.0165
    1DIPC   C1B25941  10.908   9.567   4.079  0.0251 -0.0587 -0.2244
    1DIPC   D2B25942  10.971   9.790   4.396  0.0951  0.2054  0.1933
    1DIPC   D3B25943  10.676   9.636   4.757  0.0145 -0.3772 -0.1395
    1DIPC   C4B25944  10.589   9.571   5.125  0.0476  0.1119 -0.0775
    1DIPC   NC325945  15.291   5.098   2.429  0.2068  0.4588 -0.2143
    1DIPC   PO425946  14.812   5.119   2.572  0.0530 -0.1309 -0.1329
    1DIPC   GL125947  15.084   5.068   2.932 -0.0750 -0.1663 -0.2530
    1DIPC   GL225948  15.165   4.740   3.082 -0.0361  0.2119  0.0820
    1DIPC   C1A25949  15.185   5.293   3.317  0.2713 -0.0916 -0.1147
    1DIPC   D2A25950  15.396   5.298   3.768 -0.1833 -0.1698 -0.2657
    1DIPC   D3A25951  15.519   5.637   3.813 -0.0654 -0.1617  0.1393
    1DIPC   C4A25952  15.709   6.001   3.574 -0.2136 -0.1412  0.0410
    1DIPC   C1B25953  15.439   4.817   3.540 -0.3960 -0.0118  0.0336
    1DIPC   D2B25954  15.450   4.729   3.940  0.1611 -0.0512 -0.0513
    1DIPC   D3B25955  15.176   4.858   4.341  0.0582  0.0990  0.1139
    1DIPC   C4B25956  14.907   4.550   4.209  0.2442 -0.0327 -0.1085
    1DIPC   NC325957  11.423  20.627   1.658 -0.2171 -0.0553 -0.1525
    1DIPC   PO425958  11.258  20.662   2.108  0.0588 -0.1408 -0.2823
    1DIPC   GL125959  11.109  20.612   2.490  0.1259  0.0216  0.0455
    1DIPC   GL225960  11.217  20.843   2.773  0.1649  0.1716  0.0770
    1DIPC   C1A25961  11.121  20.307   2.825  0.0309 -0.0796 -0.0750
    1DIPC   D2A25962  11.447  20.022   2.828  0.3556  0.0856 -0.0663
    1DIPC   D3A25963  11.755  20.258   2.983 -0.1106 -0.0212 -0.0176
    1DIPC   C4A25964  12.118  20.336   2.755 -0.2048 -0.0058 -0.0704
    1DIPC   C1B25965  10.944  20.802   3.187  0.0065 -0.1051  0.1733
    1DIPC   D2B25966  10.975  20.777   3.583 -0.0530  0.0501  0.0523
    1DIPC   D3B25967  10.903  20.344   3.448 -0.3805  0.1585  0.0487
    1DIPC   C4B25968  11.033  19.983   3.307  0.0010 -0.0242  0.1068
    1DIPC   NC325969   9.731   2.261   2.836  0.2146 -0.0368 -0.1301
    1DIPC   PO425970  10.166   2.333   3.030  0.0684 -0.1115  0.1437
    1DIPC   GL125971  10.489   2.263   3.365  0.0746  0.0084 -0.2194
    1DIPC   GL225972  10.502   2.597   3.467 -0.2482 -0.1200  0.1312
    1DIPC   C1A25973  10.844   2.154   3.621  0.3836 -0.1271 -0.2802
    1DIPC   D2A25974  10.890   2.154   4.145  0.0320  0.0882 -0.1136
    1DIPC   D3A25975  10.526   1.871   4.270  0.0779  0.3220 -0.2241
    1DIPC   C4A25976  10.385   1.779   4.665 -0.0409 -0.1942 -0.1672
    1DIPC   C1B25977  10.389   2.455   3.880 -0.0859 -0.1422  0.1307
    1DIPC   D2B25978  10.430   2.445   4.344 -0.0754  0.2056 -0.1191
    1DIPC   D3B25979  10.859   2.637   4.305 -0.2019 -0.0622  0.0487
    1DIPC   C4B25980  11.008   2.945   4.613  0.0116  0.0170 -0.0472
    1DIPC   NC325981  27.960  10.372   2.326 -0.2634 -0.1776 -0.3664
    1DIPC   PO425982  27.763  10.066   2.517 -0.0076  0.1095  0.1943
    1DIPC   GL125983  27.677  10.184   2.934  0.1520 -0.1580 -0.1652
    1DIPC   GL225984  27.712  10.508   2.838  0.0816  0.0154  0.1421
    1DIPC   C1A25985  28.029  10.167   3.186 -0.0297 -0.0933  0.1568
    1DIPC   D2A25986  28.446  10.379   3.301  0.1300 -0.1379 -0.2984
    1DIPC   D3A25987  28.553  10.290   3.714 -0.0637 -0.4412 -0.0131
    1DIPC   C4A25988  28.402  10.389   4.081  0.0313  0.0059 -0.2124
    1DIPC   C1B25989  27.921  10.792   3.089 -0.3176  0.0658  0.1387
    1DIPC   D2B25990  27.843  10.981   3.499 -0.0297 -0.3357 -0.0605
    1DIPC   D3B25991  27.943  11.140   3.979  0.0381 -0.1328  0.0550
    1DIPC   C4B25992  27.893  11.512   4.302 -0.0682 -0.1219 -0.0064
    1DIPC   NC325993  18.342  12.816   2.653  0.0377 -0.3079 -0.2341
    1DIPC   PO425994  18.465  13.234   2.645 -0.1953 -0.2727  0.1178
    1DIPC   GL125995  18.455  13.159   2.977 -0.2788  0.4382  0.2196
    1DIPC   GL225996  18.581  13.017   3.198 -0.2116  0.1874 -0.2157
    1DIPC   C1A25997  18.218  13.338   3.308  0.0621 -0.1110 -0.5056
    1DIPC   D2A25998  18.030  13.445   3.822 -0.0797 -0.2118 -0.0223
    1DIPC   D3A25999  18.079  13.730   4.229  0.0730 -0.0351 -0.3507
    1DIPC   C4A26000  18.065  13.485   4.621  0.0806  0.0186 -0.2189
    1DIPC   C1B26001  18.400  12.904   3.628 -0.1561  0.2307  0.1030
    1DIPC   D2B26002  18.446  13.029   4.023 -0.0287 -0.0519  0.1045
    1DIPC   D3B26003  18.173  13.005   4.377 -0.0844 -0.1949 -0.0070
    1DIPC   C4B26004  17.962  12.629   4.513  0.3117 -0.3897 -0.2324
    1DIPC   NC326005  22.311   4.928   3.014 -0.1755  0.2338 -0.2882
    1DIPC   PO426006  22.082   5.153   3.349  0.1190  0.2409  0.1195
    1DIPC   GL126007  22.016   5.167   3.710  0.1354  0.3923 -0.2521
    1DIPC   GL226008  22.210   4.936   3.807 -0.0258 -0.0328 -0.0558
    1DIPC   C1A26009  21.699   5.222   3.974  0.4345  0.0968 -0.1039
    1DIPC   D2A26010  21.483   5.473   4.245  0.1204 -0.2064 -0.2087
    1DIPC   D3A26011  21.594   5.098   4.511  0.3830 -0.1723 -0.3037
    1DIPC   C4A26012  21.666   4.803   4.244  0.1899  0.2378  0.0711
    1DIPC   C1B26013  22.133   4.904   4.109 -0.2194 -0.2310 -0.1258
    1DIPC   D2B26014  22.424   4.861   4.423  0.0709 -0.1414 -0.1333
    1DIPC   D3B26015  22.798   5.067   4.598 -0.0460  0.0362 -0.1873
    1DIPC   C4B26016  23.125   4.834   4.712  0.1142  0.2766 -0.0116
    1DIPC   NC326017  23.834   4.141   3.373  0.0341  0.0343  0.2344
    1DIPC   PO426018  24.214   4.097   3.597  0.1108  0.3397 -0.1715
    1DIPC   GL126019  24.317   4.110   3.962  0.1605 -0.1963 -0.1857
    1DIPC   GL226020  24.602   4.005   4.016 -0.3217 -0.0219 -0.0584
    1DIPC   C1A26021  24.376   4.234   4.376 -0.1338  0.0596 -0.1992
    1DIPC   D2A26022  24.318   4.278   4.846 -0.0750 -0.3766  0.1752
    1DIPC   D3A26023  24.795   4.212   4.868  0.1418  0.0238  0.1026
    1DIPC   C4A26024  24.704   4.184   5.296  0.1048 -0.1511  0.0377
    1DIPC   C1B26025  24.881   4.219   4.329  0.0961 -0.1536 -0.2767
    1DIPC   D2B26026  25.155   4.503   4.098  0.0688 -0.1075  0.1740
    1DIPC   D3B26027  25.447   4.173   4.232 -0.1586 -0.0789  0.1252
    1DIPC   C4B26028  25.235   3.884   4.553  0.1502  0.2007  0.3757
    1DIPC   NC326029  10.901   7.842   2.347  0.0690 -0.0179 -0.4890
    1DIPC   PO426030  10.968   8.307   2.501  0.0278 -0.1883 -0.1062
    1DIPC   GL126031  10.960   8.176   2.982 -0.1529 -0.1557 -0.1432
    1DIPC   GL226032  11.066   8.397   3.271  0.1562 -0.3105  0.2760
    1DIPC   C1A26033  10.715   7.998   3.243  0.1377  0.3689 -0.0533
    1DIPC   D2A26034  10.729   7.642   3.088  0.0885  0.2986  0.0333
    1DIPC   D3A26035  10.626   7.381   3.471  0.0177 -0.3009  0.1840
    1DIPC   C4A26036  10.811   7.057   3.479 -0.0419 -0.0138 -0.1860
    1DIPC   C1B26037  10.903   8.327   3.699  0.0863 -0.0619 -0.2592
    1DIPC   D2B26038  11.079   8.059   4.069  0.1226  0.1934 -0.0014
    1DIPC   D3B26039  11.427   8.159   4.204  0.2321  0.3133 -0.0008
    1DIPC   C4B26040  11.678   8.501   3.917 -0.1056 -0.0101  0.1557
    1DIPC   NC326041  13.142  16.111   2.433 -0.1890  0.1096 -0.3183
    1DIPC   PO426042  13.148  15.937   2.927 -0.0680 -0.2236 -0.1687
    1DIPC   GL126043  13.379  15.807   3.314  0.1751  0.0527 -0.0511
    1DIPC   GL226044  13.125  15.510   3.513 -0.0380 -0.0769  0.1287
    1DIPC   C1A26045  13.552  15.696   3.769 -0.1395  0.0873 -0.1043
    1DIPC   D2A26046  13.559  16.045   4.122 -0.1115 -0.0813 -0.0060
    1DIPC   D3A26047  13.436  15.919   4.595 -0.0279 -0.2238 -0.2897
    1DIPC   C4A26048  13.647  16.193   4.925 -0.0110 -0.2114  0.0186
    1DIPC   C1B26049  12.785  15.580   3.883 -0.0874 -0.4059  0.0547
    1DIPC   D2B26050  12.385  15.583   3.971 -0.1239  0.0401  0.0737
    1DIPC   D3B26051  12.313  15.739   4.426  0.3142 -0.0361 -0.0193
    1DIPC   C4B26052  12.066  15.772   4.780  0.1348 -0.0823 -0.1410
    1DIPC   NC326053  17.119  25.607   2.963  0.2077 -0.0565 -0.3401
    1DIPC   PO426054  16.879  26.029   2.829  0.2025  0.1933  0.0746
    1DIPC   GL126055  16.862  26.038   3.262  0.0429  0.1252 -0.3088
    1DIPC   GL226056  16.857  25.724   3.394  0.1699 -0.1705 -0.0618
    1DIPC   C1A26057  16.738  26.086   3.649  0.1517 -0.2912  0.0735
    1DIPC   D2A26058  16.785  26.120   3.973 -0.0533 -0.0010  0.1654
    1DIPC   D3A26059  16.923  26.545   3.913  0.1683 -0.0064 -0.3358
    1DIPC   C4A26060  17.206  26.679   4.311 -0.0713 -0.2307  0.0266
    1DIPC   C1B26061  16.776  25.559   3.774 -0.0190  0.1551 -0.1563
    1DIPC   D2B26062  16.909  25.425   4.153 -0.0343 -0.0255 -0.0536
    1DIPC   D3B26063  17.079  25.824   4.414 -0.2887 -0.2475 -0.0868
    1DIPC   C4B26064  17.363  25.805   4.722  0.0091  0.2430  0.2107
    1DIPC   NC326065  27.998  23.829   2.731 -0.2491 -0.1601  0.0014
    1DIPC   PO426066  28.060  23.488   2.394 -0.1858 -0.0785 -0.0860
    1DIPC   GL126067  28.117  23.232   2.690  0.2077 -0.0011  0.1010
    1DIPC   GL226068  28.353  22.944   2.586 -0.2807  0.1713  0.1786
    1DIPC   C1A26069  28.375  23.225   3.055  0.2084 -0.2080 -0.0185
    1DIPC   D2A26070  28.478  23.218   3.449 -0.3982  0.1452 -0.1581
    1DIPC   D3A26071  28.224  22.783   3.483  0.0027 -0.1764 -0.3762
    1DIPC   C4A26072  28.295  22.412   3.286  0.3203 -0.0946 -0.1502
    1DIPC   C1B26073  28.298  22.659   2.810 -0.1461  0.1957  0.2384
    1DIPC   D2B26074  28.300  22.191   2.864 -0.0885  0.0530 -0.0703
    1DIPC   D3B26075  28.685  22.367   2.971 -0.2027  0.3018 -0.0510
    1DIPC   C4B26076  28.977  22.157   3.225  0.1954  0.0822  0.2186
    1DIPC   NC326077  23.610   2.034   3.137  0.0025  0.0654  0.1338
    1DIPC   PO426078  23.644   2.413   3.122  0.1122  0.0783 -0.2757
    1DIPC   GL126079  23.438   2.283   3.553  0.3520  0.1150 -0.2200
    1DIPC   GL226080  23.554   2.470   3.850 -0.1334  0.2269 -0.1760
    1DIPC   C1A26081  23.302   2.044   3.949  0.0217 -0.0850  0.0799
    1DIPC   D2A26082  23.262   2.080   4.457 -0.2965 -0.1066 -0.0089
    1DIPC   D3A26083  22.953   2.310   4.665 -0.3501  0.1591 -0.2957
    1DIPC   C4A26084  22.902   2.668   4.887  0.2792 -0.1536 -0.2854
    1DIPC   C1B26085  23.622   2.456   4.307 -0.1636 -0.0951  0.1205
    1DIPC   D2B26086  23.418   2.548   4.721  0.1813  0.3157  0.1323
    1DIPC   D3B26087  23.621   2.690   5.187 -0.2005 -0.1509  0.0304
    1DIPC   C4B26088  23.609   2.349   5.444  0.2509 -0.0383 -0.0209
    1DIPC   NC326089  28.825   6.895   2.719  0.1542 -0.0341  0.0776
    1DIPC   PO426090  29.184   6.819   2.989 -0.3625 -0.1216  0.0292
    1DIPC   GL126091  29.055   6.721   3.430  0.0702 -0.0168 -0.0862
    1DIPC   GL226092  28.658   6.872   3.450  0.2589 -0.3384 -0.1618
    1DIPC   C1A26093  29.404   6.768   3.801 -0.1803 -0.0708 -0.0707
    1DIPC   D2A26094  29.521   7.199   4.111 -0.1277  0.1324  0.0327
    1DIPC   D3A26095  29.711   7.324   4.506 -0.0193 -0.0293 -0.1809
    1DIPC   C4A26096  29.475   7.667   4.856 -0.1027 -0.1148 -0.2090
    1DIPC   C1B26097  28.669   7.163   3.757 -0.0303 -0.1910  0.0819
    1DIPC   D2B26098  28.884   7.277   4.169  0.0576  0.1246  0.4148
    1DIPC   D3B26099  29.033   7.007   4.445 -0.0645 -0.1536  0.0841
    1DIPC   C4B26100  28.876   6.678   4.682 -0.1814 -0.1689 -0.0892
    1DIPC   NC326101  10.678  21.221   1.874 -0.0716 -0.0586 -0.0107
    1DIPC   PO426102  10.370  20.922   1.931 -0.2197 -0.0914 -0.3903
    1DIPC   GL126103  10.370  21.183   2.335 -0.0917 -0.2595 -0.3612
    1DIPC   GL226104  10.626  21.409   2.472 -0.0162  0.0281 -0.1975
    1DIPC   C1A26105  10.355  21.342   2.834 -0.0641 -0.1683  0.0184
    1DIPC   D2A26106  10.211  21.388   3.272 -0.0665  0.1993  0.0088
    1DIPC   D3A26107   9.911  21.698   3.394 -0.1760  0.2161 -0.1928
    1DIPC   C4A26108   9.863  21.727   3.796 -0.0854 -0.0167  0.2446
    1DIPC   C1B26109  10.794  21.159   2.782 -0.0247  0.1815 -0.1480
    1DIPC   D2B26110  10.498  20.800   2.871  0.0880 -0.0933  0.0132
    1DIPC   D3B26111  10.158  20.941   3.123  0.0281  0.0866  0.1648
    1DIPC   C4B26112   9.950  20.753   3.528 -0.0279  0.1088  0.3176
    1DIPC   NC326113  10.899  28.510   3.049 -0.4080 -0.0957  0.1468
    1DIPC   PO426114  11.199  28.206   2.953 -0.0492  0.1635  0.3871
    1DIPC   GL126115  11.144  28.257   3.372 -0.0163  0.3585  0.0803
    1DIPC   GL226116  11.369  28.551   3.393  0.2764  0.0174 -0.1802
    1DIPC   C1A26117  11.048  28.096   3.790 -0.2416 -0.1826 -0.1499
    1DIPC   D2A26118  11.041  27.756   4.128  0.2171 -0.1517  0.0499
    1DIPC   D3A26119  10.569  27.882   4.041 -0.0425 -0.0228 -0.0581
    1DIPC   C4A26120  10.227  27.690   4.231 -0.1320  0.0721  0.0890
    1DIPC   C1B26121  11.384  28.525   3.812  0.0142 -0.0690  0.0341
    1DIPC   D2B26122  11.352  28.809   4.199 -0.1445 -0.0220 -0.1139
    1DIPC   D3B26123  11.211  28.864   4.684  0.0856  0.0905  0.1016
    1DIPC   C4B26124  11.345  28.543   4.876  0.0559  0.2765  0.0915
    1DIPC   NC326125  19.876  26.414   2.993  0.0482  0.0397  0.1605
    1DIPC   PO426126  19.915  26.033   2.728 -0.3234 -0.1448  0.2300
    1DIPC   GL126127  19.833  26.005   3.191  0.0641 -0.1484  0.1131
    1DIPC   GL226128  19.918  26.278   3.417 -0.0492  0.0147  0.3011
    1DIPC   C1A26129  19.587  25.994   3.640  0.3207 -0.1211 -0.0370
    1DIPC   D2A26130  19.778  25.856   4.093  0.4058 -0.0905 -0.2512
    1DIPC   D3A26131  19.561  25.534   3.961  0.0531 -0.0241  0.0476
    1DIPC   C4A26132  19.470  25.422   3.568  0.0641 -0.0675  0.0891
    1DIPC   C1B26133  20.066  26.228   3.871 -0.0223  0.3283 -0.0494
    1DIPC   D2B26134  19.813  26.274   4.322 -0.4616 -0.0016  0.0396
    1DIPC   D3B26135  19.509  26.514   4.663 -0.1059  0.2547 -0.1554
    1DIPC   C4B26136  19.711  26.932   4.608  0.0131 -0.1231 -0.0469
    1DIPC   NC326137   0.439  25.535   3.288 -0.1124 -0.1023 -0.1577
    1DIPC   PO426138   0.622  25.326   2.978  0.0274  0.1520  0.0612
    1DIPC   GL126139   0.519  24.998   3.220  0.2132 -0.0943 -0.0152
    1DIPC   GL226140   0.417  25.063   3.557 -0.0643 -0.0108 -0.0836
    1DIPC   C1A26141   0.648  24.557   3.396 -0.1096  0.0842 -0.0140
    1DIPC   D2A26142   0.782  24.431   3.877  0.2315  0.1410 -0.1149
    1DIPC   D3A26143   0.813  24.864   3.777  0.1642 -0.0796  0.0829
    1DIPC   C4A26144   0.888  25.180   3.993 -0.1387 -0.1807 -0.3445
    1DIPC   C1B26145   0.392  25.122   3.973 -0.2865  0.0061  0.2354
    1DIPC   D2B26146   0.580  25.271   4.382  0.0169 -0.0507 -0.0229
    1DIPC   D3B26147   0.774  25.033   4.747  0.4042  0.1420  0.0604
    1DIPC   C4B26148   0.589  24.553   4.695  0.0441 -0.0261  0.1222
    1DIPC   NC326149  10.243   0.799   3.027  0.1699  0.0100  0.3819
    1DIPC   PO426150  10.469   0.569   3.005 -0.0426  0.1073 -0.0469
    1DIPC   GL126151  10.531   0.866   3.401 -0.1857  0.0002 -0.0280
    1DIPC   GL226152  10.350   0.652   3.574  0.1669 -0.0142 -0.2602
    1DIPC   C1A26153  10.381   1.092   3.806  0.2234  0.0201 -0.2293
    1DIPC   D2A26154  10.109   1.040   4.209  0.2893  0.2307 -0.0575
    1DIPC   D3A26155   9.811   0.802   4.496  0.2749  0.2449  0.1396
    1DIPC   C4A26156   9.865   1.008   4.899  0.1431  0.2121  0.2123
    1DIPC   C1B26157   9.977   0.668   3.790 -0.3884  0.2101 -0.1112
    1DIPC   D2B26158   9.618   0.751   3.905  0.0314  0.0034 -0.0855
    1DIPC   D3B26159   9.366   0.334   4.059 -0.0668 -0.2388  0.3195
    1DIPC   C4B26160   8.919   0.258   3.926  0.1428 -0.1857  0.2407
    1DIPC   NC326161  14.674  17.214   3.008  0.0137  0.0766 -0.2055
    1DIPC   PO426162  14.279  17.441   2.913  0.1428  0.1294  0.1541
    1DIPC   GL126163  14.142  17.217   3.222  0.0735 -0.1396  0.2745
    1DIPC   GL226164  14.040  16.954   3.480  0.3001 -0.0226  0.0210
    1DIPC   C1A26165  13.911  17.377   3.564 -0.1139 -0.1470 -0.3022
    1DIPC   D2A26166  13.758  17.753   3.865  0.3959 -0.2972  0.2171
    1DIPC   D3A26167  13.446  17.638   4.045  0.1116  0.0350 -0.0138
    1DIPC   C4A26168  13.167  17.281   4.101 -0.1877 -0.1649 -0.1675
    1DIPC   C1B26169  14.099  16.934   3.952 -0.2278  0.0240  0.0737
    1DIPC   D2B26170  13.956  17.015   4.383 -0.1043  0.1400  0.1057
    1DIPC   D3B26171  13.523  16.901   4.415  0.2207 -0.0520  0.3098
    1DIPC   C4B26172  13.489  16.451   4.535  0.0126 -0.5700  0.1653
    1DIPC   NC326173  26.234   0.295   3.505 -0.1548  0.1243  0.0055
    1DIPC   PO426174  26.047  30.341   3.797  0.0717  0.2191  0.0211
    1DIPC   GL126175  25.937  30.312   4.242  0.0129 -0.2552 -0.0467
    1DIPC   GL226176  25.639   0.171   4.350  0.2263 -0.3909  0.0475
    1DIPC   C1A26177  25.917   0.004   4.770 -0.4351 -0.2050  0.0706
    1DIPC   D2A26178  26.106  30.036   5.027 -0.2515  0.0979  0.1734
    1DIPC   D3A26179  25.846  29.830   5.325 -0.1054 -0.0392 -0.0284
    1DIPC   C4A26180  25.889  29.519   5.464 -0.1547  0.2601 -0.2104
    1DIPC   C1B26181  25.535   0.309   4.819 -0.2042  0.2142 -0.2281
    1DIPC   D2B26182  25.471   0.617   5.166 -0.2749  0.1147 -0.1259
    1DIPC   D3B26183  25.143   0.283   5.167 -0.0510 -0.1902 -0.1329
    1DIPC   C4B26184  24.872   0.467   5.399  0.0342  0.0261 -0.3301
    1DIPC   NC326185  16.039  26.401   3.229 -0.0375 -0.0707  0.2765
    1DIPC   PO426186  15.837  26.766   2.985  0.2290  0.1969 -0.0714
    1DIPC   GL126187  15.807  26.847   3.497 -0.2327 -0.2451  0.1215
    1DIPC   GL226188  15.710  26.580   3.586 -0.2024  0.2750  0.0775
    1DIPC   C1A26189  16.205  26.898   3.782  0.0226  0.1539 -0.1738
    1DIPC   D2A26190  16.464  26.503   4.005 -0.0492  0.1094 -0.1470
    1DIPC   D3A26191  16.319  26.078   4.204 -0.0462  0.0016 -0.2217
    1DIPC   C4A26192  16.548  25.899   4.454  0.0845  0.2349 -0.2623
    1DIPC   C1B26193  15.503  26.425   3.975 -0.0732 -0.0834 -0.0451
    1DIPC   D2B26194  15.451  26.507   4.385  0.2571  0.0023  0.0260
    1DIPC   D3B26195  15.596  26.105   4.464  0.1301  0.2851 -0.0354
    1DIPC   C4B26196  15.648  25.850   4.178  0.1529 -0.4250  0.0832
    1DIPC   NC326197  26.925   9.552   2.576  0.2888  0.3847 -0.1298
    1DIPC   PO426198  26.563   9.707   2.778  0.1381 -0.0911 -0.0689
    1DIPC   GL126199  26.730  10.025   2.985 -0.1646  0.3957 -0.1484
    1DIPC   GL226200  26.983  10.161   2.898  0.0854  0.0080 -0.0510
    1DIPC   C1A26201  26.711  10.022   3.436 -0.0820 -0.0988 -0.5634
    1DIPC   D2A26202  26.943   9.951   3.774  0.3980  0.0204 -0.2065
    1DIPC   D3A26203  27.149   9.614   3.592 -0.1410  0.1813  0.0760
    1DIPC   C4A26204  26.768   9.529   3.393 -0.0333  0.1426  0.2339
    1DIPC   C1B26205  27.212  10.062   3.331  0.0571 -0.1989 -0.1404
    1DIPC   D2B26206  27.557   9.832   3.430  0.3569  0.1693 -0.2762
    1DIPC   D3B26207  27.638   9.858   3.818  0.0485  0.1663  0.4543
    1DIPC   C4B26208  27.409  10.152   3.873  0.0921 -0.4241  0.1451
    1DIPC   NC326209  25.148  26.630   2.912 -0.3615 -0.4347 -0.0291
    1DIPC   PO426210  25.040  26.218   2.986 -0.0958 -0.0076  0.1028
    1DIPC   GL126211  24.882  26.382   3.346  0.2606 -0.4707  0.0341
    1DIPC   GL226212  24.524  26.337   3.358  0.0615  0.0326 -0.3248
    1DIPC   C1A26213  25.112  26.298   3.725 -0.0658 -0.0694  0.0147
    1DIPC   D2A26214  25.214  26.065   4.151  0.1135 -0.1647 -0.0159
    1DIPC   D3A26215  25.148  25.675   3.808 -0.1869  0.0618 -0.3003
    1DIPC   C4A26216  24.735  25.526   3.756 -0.2048 -0.3056 -0.2049
    1DIPC   C1B26217  24.672  26.008   3.645  0.0901 -0.0921 -0.3221
    1DIPC   D2B26218  24.668  25.892   4.110 -0.0399  0.1521 -0.0681
    1DIPC   D3B26219  24.768  26.339   4.259 -0.0811 -0.0479 -0.0056
    1DIPC   C4B26220  25.000  26.614   4.477  0.0561  0.2761 -0.1607
    1DIPC   NC326221   3.224   7.308   2.400  0.0163  0.6602  0.1874
    1DIPC   PO426222   3.290   6.921   2.389 -0.1747 -0.0227  0.1883
    1DIPC   GL126223   3.199   6.928   2.800  0.0203  0.2947 -0.0060
    1DIPC   GL226224   2.930   7.244   2.872  0.3356  0.0867  0.0742
    1DIPC   C1A26225   3.387   7.030   3.192 -0.1182 -0.0224 -0.3099
    1DIPC   D2A26226   3.298   7.187   3.609  0.1666 -0.0727 -0.5365
    1DIPC   D3A26227   3.082   7.574   3.736  0.0386  0.2021 -0.0468
    1DIPC   C4A26228   3.277   7.783   4.176 -0.3127 -0.2592  0.0237
    1DIPC   C1B26229   2.992   7.507   3.239  0.3776  0.0317 -0.4960
    1DIPC   D2B26230   2.817   7.862   3.465  0.0936  0.3348 -0.0110
    1DIPC   D3B26231   2.736   7.842   3.920 -0.0815  0.0763  0.1409
    1DIPC   C4B26232   2.257   7.841   4.139 -0.4052  0.1437 -0.2762
    1DIPC   NC326233  17.451  19.058   2.078 -0.1736 -0.1641 -0.1186
    1DIPC   PO426234  17.206  19.120   2.458 -0.1422 -0.0227 -0.1461
    1DIPC   GL126235  17.251  19.131   2.790  0.2376 -0.1140 -0.1764
    1DIPC   GL226236  16.852  19.190   2.881 -0.0543 -0.0981  0.3547
    1DIPC   C1A26237  17.146  19.133   3.323  0.0793 -0.0756  0.1647
    1DIPC   D2A26238  17.235  19.272   3.724  0.2046  0.1819  0.0054
    1DIPC   D3A26239  17.611  19.295   4.031  0.1274 -0.3556  0.0583
    1DIPC   C4A26240  17.737  19.718   4.206 -0.2587 -0.0428 -0.1095
    1DIPC   C1B26241  16.582  19.262   3.209  0.1077  0.1844  0.2207
    1DIPC   D2B26242  16.686  19.271   3.627 -0.0512  0.1140  0.0478
    1DIPC   D3B26243  16.288  19.104   3.835 -0.0382  0.0141 -0.1151
    1DIPC   C4B26244  15.953  18.802   3.665 -0.1151 -0.1600  0.2185
    1DIPC   NC326245  13.306   0.728   3.070  0.4233  0.1767 -0.0197
    1DIPC   PO426246  12.966   0.301   3.144  0.2264 -0.0099  0.0831
    1DIPC   GL126247  13.008   0.754   3.456  0.3514  0.1017  0.1722
    1DIPC   GL226248  13.276   0.953   3.593 -0.3691  0.0406  0.0148
    1DIPC   C1A26249  12.958   0.802   3.886  0.3470 -0.1954 -0.0629
    1DIPC   D2A26250  13.165   0.823   4.322  0.1121 -0.1915  0.2363
    1DIPC   D3A26251  12.909   0.974   4.609 -0.1185 -0.2271 -0.1390
    1DIPC   C4A26252  12.438   0.699   4.697 -0.1447  0.3579  0.0969
    1DIPC   C1B26253  13.515   0.882   3.925  0.1076  0.3169  0.0018
    1DIPC   D2B26254  13.546   0.534   4.296 -0.1545  0.1531  0.3677
    1DIPC   D3B26255  13.658   1.001   4.627 -0.1158  0.2221  0.0845
    1DIPC   C4B26256  13.578   1.329   4.886 -0.2263  0.3746 -0.0610
    1DIPC   NC326257   0.594   7.332   3.013 -0.1165  0.0145 -0.0523
    1DIPC   PO426258   0.174   7.401   2.885 -0.0032  0.1463 -0.2818
    1DIPC   GL126259   0.174   7.300   3.250  0.4581  0.2254 -0.0143
    1DIPC   GL226260   0.475   7.255   3.482  0.0536 -0.1104 -0.0445
    1DIPC   C1A26261  30.354   7.388   3.615 -0.0408 -0.1849 -0.1889
    1DIPC   D2A26262   0.130   7.132   3.832  0.2830  0.5019  0.1149
    1DIPC   D3A26263   0.486   6.783   3.593 -0.1185  0.0027 -0.0818
    1DIPC   C4A26264   0.870   6.869   3.498  0.1824  0.0964 -0.0127
    1DIPC   C1B26265   0.655   7.186   3.894 -0.0698 -0.0205  0.0947
    1DIPC   D2B26266   0.964   7.251   4.340  0.1379 -0.0075  0.1659
    1DIPC   D3B26267   0.840   7.553   4.611  0.2285  0.0619 -0.2408
    1DIPC   C4B26268   0.738   7.396   4.956 -0.2073  0.1373 -0.0466
    1DIPC   NC326269  14.943   9.224   2.147 -0.1551  0.0612 -0.1231
    1DIPC   PO426270  15.353   9.096   1.909  0.1445  0.0784  0.0563
    1DIPC   GL126271  15.519   9.264   2.270  0.5717  0.0842 -0.1020
    1DIPC   GL226272  15.549   9.600   2.461 -0.0987  0.0521 -0.0124
    1DIPC   C1A26273  15.581   9.027   2.599 -0.3199 -0.0433 -0.0446
    1DIPC   D2A26274  15.344   8.896   2.917  0.0063 -0.0193 -0.1464
    1DIPC   D3A26275  15.737   9.024   3.201 -0.1054 -0.2150 -0.0130
    1DIPC   C4A26276  16.109   9.026   2.855 -0.0926  0.1272  0.3733
    1DIPC   C1B26277  15.543   9.418   2.930  0.0224  0.0028  0.0735
    1DIPC   D2B26278  15.306   9.240   3.306 -0.1363 -0.2717  0.1344
    1DIPC   D3B26279  15.577   9.287   3.687  0.2160 -0.1630 -0.0970
    1DIPC   C4B26280  15.507   9.100   4.054 -0.0003 -0.0578 -0.4292
    1DIPC   NC326281   4.292  29.956   3.644 -0.1220 -0.2151  0.1987
    1DIPC   PO426282   3.952  30.234   3.638  0.0791 -0.3224  0.1140
    1DIPC   GL126283   3.758  30.049   3.938 -0.1850  0.1519  0.3058
    1DIPC   GL226284   4.029  29.792   4.014  0.2902 -0.0249  0.1904
    1DIPC   C1A26285   3.817  30.084   4.404 -0.1523 -0.0228 -0.0771
    1DIPC   D2A26286   3.505  30.089   4.736 -0.0479 -0.2685  0.2911
    1DIPC   D3A26287   3.274  29.738   4.792  0.0622  0.0322  0.0756
    1DIPC   C4A26288   3.438  29.380   5.214  0.0422 -0.0270 -0.5319
    1DIPC   C1B26289   4.106  29.642   4.628  0.0627 -0.1759  0.0514
    1DIPC   D2B26290   4.225  29.497   5.010  0.1855 -0.2533  0.2460
    1DIPC   D3B26291   4.385  29.713   5.360  0.0161  0.0055  0.1592
    1DIPC   C4B26292   4.588  29.475   5.661  0.0403  0.1849 -0.1440
    1DIPC   NC326293  20.151  22.188   1.745 -0.2191  0.2395 -0.1261
    1DIPC   PO426294  19.996  21.974   2.165 -0.1470  0.1642  0.3941
    1DIPC   GL126295  19.856  21.873   2.549 -0.1663 -0.0263  0.1074
    1DIPC   GL226296  20.133  21.798   2.767 -0.1016  0.0623  0.1333
    1DIPC   C1A26297  19.730  21.723   3.043 -0.0454  0.3662 -0.1776
    1DIPC   D2A26298  19.836  21.868   3.468 -0.0861 -0.2195  0.2051
    1DIPC   D3A26299  19.529  21.684   3.666 -0.1548 -0.1061 -0.1283
    1DIPC   C4A26300  19.661  21.701   4.114  0.0046 -0.1074 -0.0505
    1DIPC   C1B26301  20.292  21.431   3.085 -0.4546  0.3017  0.1353
    1DIPC   D2B26302  20.323  21.463   3.507 -0.1082 -0.1523  0.3352
    1DIPC   D3B26303  20.138  21.610   3.912 -0.3167 -0.1240  0.3074
    1DIPC   C4B26304  20.032  22.054   3.957 -0.3007 -0.1299  0.0169
    1DIPC   NC326305   2.270   3.967   3.145  0.0491  0.3429 -0.0797
    1DIPC   PO426306   2.306   3.542   3.329  0.3428 -0.0286 -0.1951
    1DIPC   GL126307   2.298   3.796   3.677  0.0575 -0.1751 -0.0289
    1DIPC   GL226308   1.977   3.909   3.838  0.2467  0.0756 -0.2089
    1DIPC   C1A26309   2.395   3.913   4.088  0.1276 -0.1694  0.2482
    1DIPC   D2A26310   2.701   3.648   4.395 -0.0888  0.0669 -0.1985
    1DIPC   D3A26311   3.128   3.446   4.372 -0.1820  0.5765 -0.1866
    1DIPC   C4A26312   3.476   3.186   4.441 -0.4685  0.1790 -0.1144
    1DIPC   C1B26313   1.799   4.026   4.204  0.0068 -0.2534 -0.3159
    1DIPC   D2B26314   1.867   4.375   4.423  0.0008  0.0225 -0.2708
    1DIPC   D3B26315   1.978   4.759   4.470  0.0734 -0.0987  0.0395
    1DIPC   C4B26316   1.641   5.197   4.530 -0.0749  0.1038 -0.1579
    1DIPC   NC326317  21.199   8.011   2.811  0.1877  0.1619 -0.0567
    1DIPC   PO426318  20.884   8.268   2.689  0.0288 -0.0443  0.2376
    1DIPC   GL126319  20.622   8.499   2.992  0.3425 -0.0612 -0.0954
    1DIPC   GL226320  20.773   8.327   3.202  0.0452 -0.2008  0.1172
    1DIPC   C1A26321  20.355   8.635   3.242  0.1676 -0.0178 -0.1051
    1DIPC   D2A26322  20.145   8.973   3.401 -0.0240  0.1412  0.2166
    1DIPC   D3A26323  19.946   8.958   3.709 -0.2057  0.0138  0.0765
    1DIPC   C4A26324  20.012   9.293   4.124  0.2227 -0.0634  0.0738
    1DIPC   C1B26325  21.016   8.057   3.452 -0.2495  0.1822 -0.3313
    1DIPC   D2B26326  20.910   7.747   3.813 -0.0657  0.1103 -0.0729
    1DIPC   D3B26327  20.572   7.756   4.033  0.0163  0.1905 -0.1775
    1DIPC   C4B26328  20.736   7.753   4.428 -0.0564 -0.2123  0.0879
    1DIPC   NC326329   6.358   8.402   2.483  0.2668 -0.0687 -0.0885
    1DIPC   PO426330   6.511   8.503   2.803 -0.4218  0.0164 -0.3175
    1DIPC   GL126331   6.589   8.127   3.128 -0.2690 -0.0550 -0.1697
    1DIPC   GL226332   6.450   7.968   3.364 -0.3078 -0.0582 -0.1603
    1DIPC   C1A26333   6.946   8.056   3.350 -0.1976 -0.1769 -0.2081
    1DIPC   D2A26334   6.998   7.726   3.585 -0.0864 -0.2012 -0.4533
    1DIPC   D3A26335   6.903   7.803   4.078  0.2133 -0.1621 -0.1635
    1DIPC   C4A26336   6.816   8.275   4.286  0.2176  0.1943 -0.2709
    1DIPC   C1B26337   6.581   7.944   3.738 -0.1459  0.2690 -0.0531
    1DIPC   D2B26338   6.390   7.901   4.129 -0.2079 -0.1501 -0.0049
    1DIPC   D3B26339   6.348   8.283   3.987  0.0584 -0.1545  0.0043
    1DIPC   C4B26340   6.594   8.587   4.044 -0.0545 -0.1498 -0.1065
    1DIPC   NC326341  14.691  15.181   3.278 -0.0768  0.1024 -0.1504
    1DIPC   PO426342  14.411  14.879   3.419  0.0272  0.1052 -0.3929
    1DIPC   GL126343  14.374  15.156   3.745  0.0535 -0.0583  0.3317
    1DIPC   GL226344  14.420  15.454   3.640 -0.2346 -0.0514 -0.1012
    1DIPC   C1A26345  14.268  15.404   4.089  0.0650  0.1346  0.1703
    1DIPC   D2A26346  14.300  15.707   4.345  0.0491  0.1573  0.0890
    1DIPC   D3A26347  14.493  15.847   4.794  0.1135 -0.2819 -0.0228
    1DIPC   C4A26348  14.202  15.825   5.040  0.1091  0.1380 -0.0559
    1DIPC   C1B26349  14.702  15.599   3.978  0.0520 -0.0958  0.0452
    1DIPC   D2B26350  14.831  15.703   4.387 -0.0992  0.0555 -0.0749
    1DIPC   D3B26351  14.895  15.313   4.385 -0.1624  0.1307  0.2028
    1DIPC   C4B26352  14.601  15.051   4.235 -0.4262  0.0580 -0.0669
    1DIPC   NC326353  15.963  24.197   2.331  0.1772 -0.0368  0.2301
    1DIPC   PO426354  16.211  24.268   2.660  0.5163 -0.4867  0.0082
    1DIPC   GL126355  16.406  24.219   3.067 -0.0681 -0.3480 -0.1302
    1DIPC   GL226356  16.293  23.983   3.092 -0.4462  0.1547  0.0023
    1DIPC   C1A26357  16.595  24.007   3.501 -0.2205 -0.1857 -0.1585
    1DIPC   D2A26358  16.880  24.019   3.860  0.1721 -0.0353 -0.4691
    1DIPC   D3A26359  17.049  23.786   3.561  0.0972 -0.1511 -0.0312
    1DIPC   C4A26360  17.289  23.876   3.215  0.0642 -0.2694 -0.0582
    1DIPC   C1B26361  16.122  23.897   3.515  0.3209 -0.1638 -0.1049
    1DIPC   D2B26362  16.287  23.992   3.934  0.0427  0.1012  0.1633
    1DIPC   D3B26363  16.221  23.980   4.289 -0.2392 -0.4056 -0.3392
    1DIPC   C4B26364  15.937  23.685   4.467  0.2998 -0.2890  0.2518
    1DIPC   NC326365   5.975  19.648   1.001  0.0218 -0.1508 -0.0240
    1DIPC   PO426366   6.234  19.633   1.395 -0.1709  0.0084 -0.2297
    1DIPC   GL126367   6.252  19.907   1.857  0.0297 -0.2727 -0.0567
    1DIPC   GL226368   6.001  20.188   1.810  0.2884  0.0104  0.2153
    1DIPC   C1A26369   6.343  19.918   2.276  0.1636  0.2847  0.2668
    1DIPC   D2A26370   6.469  19.891   2.757  0.1549 -0.0843  0.1433
    1DIPC   D3A26371   6.612  19.890   3.248 -0.0666 -0.0437  0.0246
    1DIPC   C4A26372   7.027  20.017   3.493 -0.3113 -0.1939 -0.0130
    1DIPC   C1B26373   5.983  20.279   2.262  0.3342  0.0237  0.1579
    1DIPC   D2B26374   5.695  20.296   2.634  0.3261 -0.1082  0.1594
    1DIPC   D3B26375   6.007  20.058   2.767  0.1720 -0.1826  0.1412
    1DIPC   C4B26376   6.229  20.277   3.063  0.1140 -0.1090 -0.0742
    1DIPC   NC326377  24.550  12.230   1.880  0.0166 -0.0970 -0.0111
    1DIPC   PO426378  24.112  12.195   1.936 -0.0389 -0.0027  0.0745
    1DIPC   GL126379  23.935  12.270   2.348  0.1246 -0.2497  0.0196
    1DIPC   GL226380  23.669  12.215   2.226  0.0185  0.2651  0.1347
    1DIPC   C1A26381  23.846  12.338   2.757 -0.0909  0.1901  0.1336
    1DIPC   D2A26382  23.664  12.647   3.073 -0.1886  0.0140 -0.1353
    1DIPC   D3A26383  23.643  12.584   3.502  0.1233  0.2891  0.0664
    1DIPC   C4A26384  23.349  12.593   3.914  0.0569  0.1098 -0.1219
    1DIPC   C1B26385  23.755  11.819   2.511 -0.2259  0.0761 -0.0358
    1DIPC   D2B26386  23.891  11.825   2.862  0.1528  0.1082  0.0189
    1DIPC   D3B26387  24.055  11.713   3.164 -0.3533  0.0742  0.1294
    1DIPC   C4B26388  24.449  11.898   3.327  0.1186  0.1202 -0.0646
    1DIPC   NC326389  11.978   4.359   1.940 -0.0133 -0.2701 -0.1308
    1DIPC   PO426390  12.266   4.459   2.319  0.1730 -0.2531 -0.0241
    1DIPC   GL126391  12.084   4.442   2.656 -0.2787 -0.0876 -0.1028
    1DIPC   GL226392  12.302   4.407   2.882 -0.2279  0.1999 -0.2074
    1DIPC   C1A26393  11.927   4.720   3.010 -0.3896  0.0935 -0.3263
    1DIPC   D2A26394  11.601   4.874   3.281 -0.0728  0.0761 -0.1735
    1DIPC   D3A26395  11.712   5.307   3.408 -0.0744  0.1338 -0.5156
    1DIPC   C4A26396  11.627   5.517   3.736  0.0001 -0.0806  0.0111
    1DIPC   C1B26397  12.348   4.645   3.333  0.1710 -0.0697 -0.0462
    1DIPC   D2B26398  12.210   4.891   3.745  0.0497  0.0490 -0.0406
    1DIPC   D3B26399  12.564   5.151   3.846 -0.0429  0.1636  0.2297
    1DIPC   C4B26400  12.993   5.231   4.072 -0.1812 -0.1586  0.0919
    1DIPC   NC326401   7.274  11.625   2.451 -0.0260  0.0968  0.1466
    1DIPC   PO426402   7.118  11.167   2.485  0.0009  0.1563  0.1804
    1DIPC   GL126403   6.830  11.205   2.900 -0.1989  0.1651  0.1133
    1DIPC   GL226404   6.703  11.532   3.026  0.1216  0.2456  0.3730
    1DIPC   C1A26405   6.848  11.082   3.439  0.1380 -0.0842 -0.0647
    1DIPC   D2A26406   7.186  11.304   3.727 -0.4120 -0.0374 -0.2027
    1DIPC   D3A26407   7.463  11.164   3.414 -0.4126 -0.1227  0.2191
    1DIPC   C4A26408   7.714  10.865   3.567  0.0519 -0.3906  0.1570
    1DIPC   C1B26409   6.991  11.500   3.304  0.0254 -0.2896  0.0833
    1DIPC   D2B26410   7.200  11.935   3.463  0.0317 -0.1874  0.3117
    1DIPC   D3B26411   7.536  12.236   3.303  0.1585 -0.1104 -0.2151
    1DIPC   C4B26412   7.696  12.420   3.669 -0.1964  0.0146  0.0674
    1DIPC   NC326413   1.996  27.990   3.203 -0.2055 -0.5441  0.1894
    1DIPC   PO426414   1.784  27.880   3.586 -0.1991 -0.2970  0.1439
    1DIPC   GL126415   1.536  27.793   3.921 -0.4775  0.3325  0.1648
    1DIPC   GL226416   1.217  27.939   4.028 -0.4394  0.1416 -0.1834
    1DIPC   C1A26417   1.678  27.754   4.359  0.3650 -0.2395 -0.2731
    1DIPC   D2A26418   1.773  27.722   4.857  0.0660  0.2722 -0.1719
    1DIPC   D3A26419   1.867  27.349   4.986  0.0457 -0.0547  0.1639
    1DIPC   C4A26420   2.099  27.083   4.787  0.1693 -0.0430 -0.2080
    1DIPC   C1B26421   0.871  28.036   4.219 -0.3026 -0.1137 -0.1697
    1DIPC   D2B26422   0.684  28.079   4.636  0.0962 -0.2611  0.1398
    1DIPC   D3B26423   0.443  28.291   4.857  0.1560 -0.1325  0.2064
    1DIPC   C4B26424   0.563  28.667   4.959  0.0946 -0.2382 -0.1994
    1DIPC   NC326425  22.923   7.297   2.855 -0.1139 -0.2724  0.1444
    1DIPC   PO426426  22.435   7.332   2.874  0.1181 -0.1207 -0.1003
    1DIPC   GL126427  22.291   7.302   3.259 -0.2090 -0.1891  0.0871
    1DIPC   GL226428  22.040   7.279   3.419  0.3202  0.0547 -0.2293
    1DIPC   C1A26429  22.516   7.254   3.634 -0.2350  0.2764 -0.0165
    1DIPC   D2A26430  22.430   7.462   4.066 -0.2308  0.0665 -0.2014
    1DIPC   D3A26431  22.611   7.551   4.566  0.2695  0.1888  0.3931
    1DIPC   C4A26432  22.975   7.717   4.708  0.0636 -0.0724 -0.1192
    1DIPC   C1B26433  22.182   7.650   3.669  0.2248 -0.1694  0.0563
    1DIPC   D2B26434  22.068   7.860   3.999 -0.2772  0.1105  0.2627
    1DIPC   D3B26435  22.335   7.943   4.265  0.4956  0.1966 -0.2788
    1DIPC   C4B26436  22.249   7.847   4.715  0.0134 -0.0241  0.0406
    1DIPC   NC326437  21.798  25.756   2.734 -0.2648 -0.1173  0.0305
    1DIPC   PO426438  21.345  25.736   2.995  0.3133  0.2335  0.1732
    1DIPC   GL126439  21.274  25.786   3.387  0.0322 -0.3908  0.1092
    1DIPC   GL226440  21.139  26.132   3.444 -0.0399  0.1775 -0.0044
    1DIPC   C1A26441  21.508  25.813   3.797 -0.0594  0.1421 -0.2434
    1DIPC   D2A26442  21.446  25.810   4.281  0.1300 -0.0946  0.2388
    1DIPC   D3A26443  21.204  25.725   4.566 -0.0968  0.0258  0.1104
    1DIPC   C4A26444  21.132  25.343   4.612  0.1140 -0.1979  0.1154
    1DIPC   C1B26445  21.007  26.009   3.924 -0.1275  0.0874  0.1560
    1DIPC   D2B26446  20.698  25.868   4.252 -0.4524 -0.3846  0.1398
    1DIPC   D3B26447  20.985  26.121   4.495 -0.0165 -0.1421 -0.1243
    1DIPC   C4B26448  21.145  26.333   4.349 -0.0954 -0.2554  0.0235
    1DIPC   NC326449   7.325   8.794   1.661  0.3588 -0.1010 -0.1381
    1DIPC   PO426450   7.221   8.773   2.195 -0.3059  0.1409 -0.2417
    1DIPC   GL126451   7.189   8.929   2.603  0.2049 -0.0045 -0.3017
    1DIPC   GL226452   6.871   8.948   2.854 -0.0072 -0.0421 -0.2196
    1DIPC   C1A26453   7.503   8.936   2.973  0.0857  0.4276  0.4157
    1DIPC   D2A26454   7.324   9.014   3.425 -0.1122  0.3415 -0.1379
    1DIPC   D3A26455   7.464   9.455   3.396  0.1651  0.4024  0.1028
    1DIPC   C4A26456   7.170   9.765   3.369  0.1001 -0.2172 -0.1015
    1DIPC   C1B26457   6.885   8.895   3.279  0.1649 -0.1374 -0.0530
    1DIPC   D2B26458   7.178   8.541   3.426  0.1937  0.1621  0.1220
    1DIPC   D3B26459   6.990   8.822   3.769 -0.1766  0.2690  0.2802
    1DIPC   C4B26460   6.998   9.248   3.693 -0.0108  0.0484  0.1605
    1DIPC   NC326461   5.284  24.676   2.320  0.3057  0.2174 -0.2725
    1DIPC   PO426462   5.231  24.640   2.786 -0.1188 -0.3131  0.0514
    1DIPC   GL126463   5.307  24.869   3.220 -0.1179  0.2486 -0.0266
    1DIPC   GL226464   5.687  24.951   3.322  0.2142  0.4574 -0.2907
    1DIPC   C1A26465   5.351  24.965   3.650  0.2773  0.0872 -0.2611
    1DIPC   D2A26466   5.400  25.250   4.021 -0.0251  0.0878 -0.0945
    1DIPC   D3A26467   5.344  24.820   4.142 -0.0871 -0.0781  0.1580
    1DIPC   C4A26468   5.104  24.721   4.441 -0.0267  0.0270 -0.1007
    1DIPC   C1B26469   5.690  24.559   3.595 -0.1148 -0.0519 -0.1541
    1DIPC   D2B26470   5.701  24.155   3.533  0.2244  0.0265  0.0568
    1DIPC   D3B26471   5.573  23.885   3.682  0.0440  0.2583  0.2322
    1DIPC   C4B26472   5.726  23.469   3.753  0.1409  0.0645  0.4775
    1DIPC   NC326473  17.980   3.760   2.682 -0.0022  0.2868 -0.2511
    1DIPC   PO426474  18.361   3.933   2.694 -0.0602  0.0944  0.0866
    1DIPC   GL126475  18.222   4.085   3.098 -0.1281 -0.0044  0.0175
    1DIPC   GL226476  18.336   4.335   3.127 -0.3845 -0.2547 -0.1694
    1DIPC   C1A26477  18.315   4.150   3.593 -0.1940  0.2540 -0.0078
    1DIPC   D2A26478  18.336   4.508   3.723  0.0351 -0.0278 -0.0551
    1DIPC   D3A26479  18.275   4.698   4.176  0.0651  0.0153 -0.1558
    1DIPC   C4A26480  18.591   4.921   4.216 -0.1250 -0.3204  0.0521
    1DIPC   C1B26481  17.951   4.527   3.258  0.0461 -0.0712  0.3223
    1DIPC   D2B26482  17.539   4.426   3.319 -0.1153 -0.1836 -0.0460
    1DIPC   D3B26483  17.818   4.145   3.560 -0.2165 -0.0320  0.1995
    1DIPC   C4B26484  17.918   4.145   3.954  0.0506  0.1497 -0.1244
    1DIPC   NC326485  10.546   1.636   2.817 -0.0103 -0.0291 -0.0963
    1DIPC   PO426486  10.164   1.641   2.854 -0.0827 -0.2349  0.1859
    1DIPC   GL126487  10.113   1.854   3.194 -0.1170  0.0252 -0.7519
    1DIPC   GL226488  10.397   1.750   3.361 -0.3808  0.3474 -0.0367
    1DIPC   C1A26489   9.918   1.982   3.509 -0.0820 -0.1843 -0.2293
    1DIPC   D2A26490  10.023   2.307   3.668 -0.2268 -0.1689  0.0512
    1DIPC   D3A26491   9.640   2.601   3.791  0.2942  0.0338 -0.3586
    1DIPC   C4A26492   9.427   2.503   4.157  0.0996  0.0645  0.2880
    1DIPC   C1B26493  10.354   1.983   3.752  0.0695  0.1103 -0.3605
    1DIPC   D2B26494  10.072   1.976   4.085 -0.2055 -0.0709  0.0221
    1DIPC   D3B26495   9.880   2.366   4.189 -0.1839 -0.0146  0.1591
    1DIPC   C4B26496   9.824   2.375   4.591 -0.1968 -0.1136 -0.2595
    1DIPC   NC326497  19.327  29.862   2.389 -0.0188  0.1117 -0.2098
    1DIPC   PO426498  19.623  29.903   2.589 -0.1684 -0.1475 -0.0300
    1DIPC   GL126499  19.650  30.087   3.058 -0.0022  0.0482  0.1850
    1DIPC   GL226500  19.433  29.940   3.202 -0.1750 -0.0857 -0.1368
    1DIPC   C1A26501  19.740  30.209   3.495  0.0378 -0.2866 -0.1008
    1DIPC   D2A26502  19.858  30.138   3.849 -0.1214 -0.1407 -0.1750
    1DIPC   D3A26503  19.763   0.277   4.031 -0.1300  0.4518  0.2516
    1DIPC   C4A26504  19.726   0.544   4.354 -0.0712  0.1612 -0.1155
    1DIPC   C1B26505  19.262  30.282   3.246  0.1935  0.2605 -0.0252
    1DIPC   D2B26506  19.391   0.306   3.490  0.0343  0.1834  0.1745
    1DIPC   D3B26507  19.175   0.193   3.844 -0.1310 -0.1108 -0.1141
    1DIPC   C4B26508  19.398  30.265   4.070 -0.0692 -0.0052 -0.0776
    1DIPC   NC326509  22.983  17.041   2.136 -0.3114  0.0943 -0.0191
    1DIPC   PO426510  22.747  17.499   2.152 -0.2693  0.5300 -0.1728
    1DIPC   GL126511  22.599  17.568   2.578 -0.0223  0.2182  0.2892
    1DIPC   GL226512  22.489  17.272   2.643  0.1576 -0.2122  0.1636
    1DIPC   C1A26513  22.229  17.616   2.801 -0.2964 -0.0786  0.0966
    1DIPC   D2A26514  22.226  17.859   3.151  0.4002 -0.1508 -0.2573
    1DIPC   D3A26515  22.158  17.476   3.314  0.0855 -0.0838  0.0786
    1DIPC   C4A26516  22.247  17.430   3.817 -0.3449  0.0101  0.1941
    1DIPC   C1B26517  22.467  17.178   2.990 -0.2282  0.3530 -0.0391
    1DIPC   D2B26518  22.597  17.083   3.440  0.0118  0.0011 -0.0817
    1DIPC   D3B26519  22.906  17.268   3.573  0.0052 -0.1125  0.0193
    1DIPC   C4B26520  23.284  16.975   3.756 -0.1575 -0.1326 -0.1978
    1DIPC   NC326521  13.009   4.984   2.583  0.0742  0.2034  0.0433
    1DIPC   PO426522  12.716   4.528   2.625  0.2002 -0.1141  0.1620
    1DIPC   GL126523  12.554   4.815   2.883 -0.5268  0.2523  0.0261
    1DIPC   GL226524  12.829   4.797   3.200 -0.0110  0.2447 -0.0406
    1DIPC   C1A26525  12.553   5.166   3.234  0.1395 -0.0009 -0.1340
    1DIPC   D2A26526  12.160   5.329   3.476 -0.2234  0.0721  0.0276
    1DIPC   D3A26527  12.104   5.600   3.874  0.2001 -0.3305  0.0812
    1DIPC   C4A26528  12.197   5.629   4.313 -0.2009  0.2248  0.5068
    1DIPC   C1B26529  13.236   4.713   3.259 -0.0847 -0.1225  0.0293
    1DIPC   D2B26530  13.569   4.686   3.514 -0.1206  0.1298  0.0853
    1DIPC   D3B26531  13.520   4.976   3.785  0.1992 -0.0130 -0.0100
    1DIPC   C4B26532  13.729   5.292   3.895  0.2261 -0.0439  0.0596
    1DIPC   NC326533  12.621  12.561   3.175 -0.0123 -0.3529  0.1062
    1DIPC   PO426534  12.878  12.563   3.471 -0.1530 -0.1486  0.2609
    1DIPC   GL126535  13.160  12.666   3.800  0.4821  0.1207  0.0306
    1DIPC   GL226536  13.018  12.491   4.022  0.2320 -0.0584  0.0145
    1DIPC   C1A26537  13.121  13.098   4.105  0.0170  0.0078 -0.0877
    1DIPC   D2A26538  13.262  13.343   4.461  0.0294  0.2532 -0.0328
    1DIPC   D3A26539  13.355  13.027   4.802 -0.0726  0.2021  0.0683
    1DIPC   C4A26540  13.200  13.215   5.212  0.5744 -0.2225  0.1889
    1DIPC   C1B26541  12.830  12.686   4.377  0.2662 -0.0248 -0.1242
    1DIPC   D2B26542  12.647  12.760   4.749  0.2956 -0.3230  0.1226
    1DIPC   D3B26543  12.551  12.442   5.103  0.0382  0.1708 -0.2703
    1DIPC   C4B26544  12.457  11.996   5.021 -0.1277 -0.0866 -0.1095
    1DIPC   NC326545  14.808  25.157   2.400 -0.0725  0.4895 -0.0335
    1DIPC   PO426546  14.561  24.805   2.592 -0.0875 -0.0503 -0.0098
    1DIPC   GL126547  14.728  24.900   2.932  0.1084 -0.1698  0.1159
    1DIPC   GL226548  14.453  25.085   3.125  0.1572 -0.0096 -0.0922
    1DIPC   C1A26549  14.801  24.590   3.330  0.0395  0.0844  0.1404
    1DIPC   D2A26550  14.885  24.342   3.784  0.2344  0.2811 -0.1157
    1DIPC   D3A26551  14.587  24.646   3.790  0.0569 -0.0032 -0.2641
    1DIPC   C4A26552  14.534  25.044   4.015 -0.3268 -0.1201  0.0682
    1DIPC   C1B26553  14.763  25.116   3.569  0.2069 -0.6075  0.1533
    1DIPC   D2B26554  15.222  25.153   3.652  0.1979 -0.2161  0.0748
    1DIPC   D3B26555  15.101  24.729   3.731 -0.2744  0.0354  0.0211
    1DIPC   C4B26556  15.353  24.350   3.551  0.0841 -0.2089 -0.0616
    1DIPC   NC326557  19.041   6.316   2.440  0.0995 -0.3219 -0.3168
    1DIPC   PO426558  19.427   6.069   2.695  0.2001 -0.0500  0.0324
    1DIPC   GL126559  19.449   5.952   3.077 -0.2607 -0.0373  0.1299
    1DIPC   GL226560  19.300   5.992   3.369  0.2314 -0.1787 -0.0579
    1DIPC   C1A26561  19.802   5.961   3.381 -0.3666  0.0638 -0.2775
    1DIPC   D2A26562  20.223   5.911   3.359 -0.0652 -0.2227 -0.3482
    1DIPC   D3A26563  20.136   5.925   3.812  0.4330  0.2129  0.0069
    1DIPC   C4A26564  20.209   6.169   4.198  0.0805 -0.0718  0.0592
    1DIPC   C1B26565  19.054   5.778   3.628  0.0148 -0.3736  0.2581
    1DIPC   D2B26566  18.653   5.517   3.703  0.0561  0.0511 -0.1230
    1DIPC   D3B26567  18.952   5.498   4.094 -0.1463  0.1393  0.3754
    1DIPC   C4B26568  18.860   5.752   4.446  0.0258 -0.1961 -0.2256
    1DIPC   NC326569  20.410   8.298   2.295 -0.1536 -0.4299  0.2679
    1DIPC   PO426570  20.407   7.956   2.506 -0.3290 -0.0400 -0.0313
    1DIPC   GL126571  20.250   8.199   2.778 -0.0801  0.1246 -0.2527
    1DIPC   GL226572  19.903   8.329   2.646  0.1116 -0.0029  0.1153
    1DIPC   C1A26573  20.192   8.173   3.181  0.0609  0.1552 -0.0343
    1DIPC   D2A26574  20.376   7.857   3.479 -0.2592 -0.0016  0.0568
    1DIPC   D3A26575  20.408   8.315   3.625 -0.0175 -0.1044  0.0548
    1DIPC   C4A26576  20.308   8.567   3.895  0.1995  0.2103  0.3228
    1DIPC   C1B26577  19.705   8.326   3.052 -0.0510  0.2169 -0.2214
    1DIPC   D2B26578  19.441   8.286   3.376  0.0072  0.0677  0.1592
    1DIPC   D3B26579  19.469   8.153   3.717  0.1814  0.2622  0.2004
    1DIPC   C4B26580  19.623   8.436   3.988  0.0670 -0.0243  0.4816
    1DIPC   NC326581  18.099   3.019   2.267 -0.0641  0.3052  0.3114
    1DIPC   PO426582  18.335   2.847   2.569  0.3390 -0.0929 -0.1479
    1DIPC   GL126583  18.032   2.727   2.921  0.0532 -0.4940 -0.2267
    1DIPC   GL226584  17.642   2.894   3.082 -0.0004  0.1958 -0.2217
    1DIPC   C1A26585  18.117   2.696   3.289 -0.0194 -0.1889  0.0260
    1DIPC   D2A26586  18.392   2.552   3.550 -0.0291 -0.1514  0.1582
    1DIPC   D3A26587  18.142   2.873   3.804  0.2087 -0.0202  0.2680
    1DIPC   C4A26588  18.041   2.679   4.089  0.2676  0.0025 -0.2305
    1DIPC   C1B26589  17.328   2.583   3.259 -0.1837 -0.1304  0.1671
    1DIPC   D2B26590  17.148   2.249   3.173 -0.1658 -0.1886 -0.1558
    1DIPC   D3B26591  16.989   1.900   3.450  0.0017  0.0177  0.0006
    1DIPC   C4B26592  17.132   1.465   3.425  0.2227  0.0375 -0.0728
    1DIPC   NC326593  12.848  23.533   1.987  0.2474  0.2300  0.1888
    1DIPC   PO426594  12.711  23.845   2.227  0.1306 -0.0748  0.1044
    1DIPC   GL126595  12.653  23.809   2.640  0.3673 -0.0482  0.1099
    1DIPC   GL226596  12.475  23.628   2.752 -0.0325  0.3573  0.2269
    1DIPC   C1A26597  12.865  24.119   3.051 -0.2731 -0.1815  0.1423
    1DIPC   D2A26598  12.950  24.068   3.511 -0.2991  0.0544  0.1273
    1DIPC   D3A26599  12.756  23.864   3.914  0.1919 -0.1259  0.1920
    1DIPC   C4A26600  12.493  23.462   4.130  0.0476  0.1641 -0.0382
    1DIPC   C1B26601  12.402  23.546   3.198  0.1950 -0.0635 -0.0983
    1DIPC   D2B26602  12.403  23.479   3.643  0.0920  0.0009  0.1849
    1DIPC   D3B26603  12.837  23.429   3.651 -0.0196  0.2619 -0.1884
    1DIPC   C4B26604  12.821  23.284   3.307 -0.0689  0.0478 -0.2897
    1DIPC   NC326605  18.777  16.537   2.304  0.0863 -0.1705  0.0107
    1DIPC   PO426606  18.831  16.951   2.560 -0.0305 -0.1493  0.2060
    1DIPC   GL126607  18.828  17.069   2.981  0.0832 -0.1021 -0.0267
    1DIPC   GL226608  18.584  17.184   3.154  0.0601 -0.3470 -0.0464
    1DIPC   C1A26609  19.109  17.315   3.272 -0.0135 -0.3317  0.3392
    1DIPC   D2A26610  19.329  17.508   3.631 -0.0090 -0.0087 -0.0514
    1DIPC   D3A26611  19.628  17.753   3.364 -0.3326  0.0016  0.2306
    1DIPC   C4A26612  19.932  18.033   3.222 -0.0115  0.0488  0.1507
    1DIPC   C1B26613  18.221  17.283   3.516 -0.0054 -0.0380  0.1117
    1DIPC   D2B26614  18.279  17.315   3.910  0.1950 -0.1128  0.2049
    1DIPC   D3B26615  18.401  17.753   3.906 -0.1025  0.4292 -0.0254
    1DIPC   C4B26616  18.907  17.792   3.799 -0.1996 -0.0657 -0.0783
    1DIPC   NC326617  16.184  13.416   3.175 -0.2603  0.2057  0.1080
    1DIPC   PO426618  15.943  13.628   3.546 -0.0290 -0.0940 -0.0202
    1DIPC   GL126619  16.130  13.846   3.951 -0.2397 -0.1074 -0.0252
    1DIPC   GL226620  16.285  13.568   4.117 -0.2510 -0.1572 -0.1348
    1DIPC   C1A26621  16.130  14.062   4.250  0.0702 -0.1103 -0.0121
    1DIPC   D2A26622  16.477  14.063   4.406  0.1442  0.1149 -0.0722
    1DIPC   D3A26623  16.261  14.189   4.789 -0.0010 -0.1891  0.2528
    1DIPC   C4A26624  16.598  14.316   4.953 -0.0473  0.0728  0.0036
    1DIPC   C1B26625  16.338  13.557   4.526 -0.0266  0.0893  0.0827
    1DIPC   D2B26626  16.348  13.721   4.938 -0.0789  0.2035 -0.1366
    1DIPC   D3B26627  16.012  13.608   5.184 -0.1773 -0.0381  0.0994
    1DIPC   C4B26628  15.704  13.252   5.080 -0.0433 -0.0783  0.0566
    1DIPC   NC326629   3.057  25.722   3.442 -0.0763 -0.0926 -0.2713
    1DIPC   PO426630   3.086  26.153   3.437 -0.1848 -0.1182  0.0440
    1DIPC   GL126631   3.160  26.357   3.815  0.0844 -0.4914 -0.0009
    1DIPC   GL226632   3.433  26.455   3.737  0.3044  0.2012 -0.1148
    1DIPC   C1A26633   2.831  26.270   4.074 -0.0059  0.0766  0.0806
    1DIPC   D2A26634   2.804  25.830   4.324 -0.1378 -0.2289  0.0501
    1DIPC   D3A26635   2.476  25.591   4.219  0.3417 -0.6627  0.2192
    1DIPC   C4A26636   2.197  25.304   4.430  0.1733  0.1456  0.1076
    1DIPC   C1B26637   3.635  26.274   4.232 -0.2731 -0.4132  0.0133
    1DIPC   D2B26638   3.737  26.232   4.556  0.0409  0.0449 -0.1010
    1DIPC   D3B26639   3.370  26.305   4.796  0.0757 -0.2932  0.1832
    1DIPC   C4B26640   3.049  26.535   4.456  0.1668  0.3138  0.0318
    1DIPC   NC326641   9.536   9.884   2.943 -0.0796  0.1604 -0.2229
    1DIPC   PO426642   9.824  10.089   3.109  0.0987 -0.0560 -0.1593
    1DIPC   GL126643   9.453  10.141   3.391  0.1075  0.1146  0.2453
    1DIPC   GL226644   9.109   9.855   3.211  0.3076  0.1275  0.0762
    1DIPC   C1A26645   9.217  10.371   3.690 -0.2731 -0.2825  0.2929
    1DIPC   D2A26646   8.922  10.419   3.986  0.1549  0.0750 -0.1384
    1DIPC   D3A26647   9.262  10.409   4.143 -0.2379 -0.0550 -0.1424
    1DIPC   C4A26648   9.475  10.054   4.188  0.2035  0.1235  0.1528
    1DIPC   C1B26649   8.940   9.888   3.656  0.1547  0.0979 -0.1122
    1DIPC   D2B26650   8.654   9.732   4.092 -0.3585 -0.1459  0.1319
    1DIPC   D3B26651   8.954  10.032   4.371 -0.2121 -0.1286  0.1151
    1DIPC   C4B26652   9.292   9.757   4.597 -0.2693  0.0623  0.1676
    1DIPC   NC326653  21.356  20.107   1.582 -0.0159 -0.0286  0.3271
    1DIPC   PO426654  21.612  20.280   1.974  0.2194 -0.1176  0.3516
    1DIPC   GL126655  21.560  20.073   2.344  0.0786 -0.0997 -0.0175
    1DIPC   GL226656  21.382  19.845   2.315  0.2946  0.2039  0.2030
    1DIPC   C1A26657  21.632  20.010   2.694  0.1493 -0.2637  0.0458
    1DIPC   D2A26658  21.713  19.919   3.040 -0.0227 -0.1071 -0.0428
    1DIPC   D3A26659  21.462  19.799   3.375  0.2364 -0.1371  0.2465
    1DIPC   C4A26660  21.586  19.783   3.883  0.0469 -0.4719  0.1689
    1DIPC   C1B26661  21.239  19.468   2.474 -0.2286  0.1185  0.3474
    1DIPC   D2B26662  21.204  19.309   2.960 -0.1075  0.0297  0.0139
    1DIPC   D3B26663  21.241  19.784   2.935  0.0662  0.4082  0.4041
    1DIPC   C4B26664  21.024  20.035   2.657 -0.1067  0.0827 -0.1171
    1DIPC   NC326665   4.314   6.998   1.846 -0.0439 -0.6069 -0.1010
    1DIPC   PO426666   4.417   7.360   2.227 -0.0262  0.0836 -0.0010
    1DIPC   GL126667   4.131   7.477   2.563 -0.2095  0.1481  0.2391
    1DIPC   GL226668   4.167   7.217   2.805  0.2029  0.0415  0.3790
    1DIPC   C1A26669   3.998   7.924   2.797 -0.0631 -0.1737  0.4578
    1DIPC   D2A26670   3.828   8.236   3.001 -0.1475  0.3289  0.3380
    1DIPC   D3A26671   3.530   7.960   2.934  0.0149 -0.2437 -0.1999
    1DIPC   C4A26672   3.423   7.519   2.952  0.0476  0.0525  0.1309
    1DIPC   C1B26673   3.894   7.424   3.024 -0.1886  0.0014  0.2938
    1DIPC   D2B26674   3.718   7.475   3.419 -0.0729  0.0531 -0.2011
    1DIPC   D3B26675   3.685   7.738   3.828  0.0335 -0.2823  0.0069
    1DIPC   C4B26676   3.744   7.650   4.198  0.6049 -0.4872  0.0994
    1DIPC   NC326677  23.709   5.341   3.169 -0.2333 -0.0983  0.0525
    1DIPC   PO426678  24.134   5.174   3.142  0.0749 -0.0691 -0.0467
    1DIPC   GL126679  24.203   5.513   3.410 -0.1746  0.4084 -0.2736
    1DIPC   GL226680  24.044   5.777   3.257  0.2049  0.2851  0.0283
    1DIPC   C1A26681  24.500   5.654   3.708 -0.0575 -0.0414  0.1476
    1DIPC   D2A26682  24.304   5.960   4.009 -0.1355  0.5925 -0.1564
    1DIPC   D3A26683  24.584   6.260   4.040 -0.1284 -0.0339  0.0893
    1DIPC   C4A26684  24.452   6.718   3.931 -0.0045  0.0882 -0.1855
    1DIPC   C1B26685  23.930   5.919   3.705  0.0675  0.2478  0.1808
    1DIPC   D2B26686  23.752   5.969   4.155  0.1826 -0.3337  0.2166
    1DIPC   D3B26687  24.024   5.999   4.510 -0.0292 -0.1075  0.3040
    1DIPC   C4B26688  24.502   5.982   4.516 -0.2094 -0.0192  0.4906
    1DIPC   NC326689  17.821  30.079   3.273 -0.1945  0.2012  0.2474
    1DIPC   PO426690  18.087  29.824   3.124 -0.1587  0.0355 -0.2213
    1DIPC   GL126691  18.135  29.930   3.621 -0.1405  0.0934  0.0266
    1DIPC   GL226692  18.008  29.763   3.840  0.0665  0.2036  0.0468
    1DIPC   C1A26693  18.205  30.215   4.004 -0.0810  0.1874  0.0054
    1DIPC   D2A26694  18.132   0.116   4.444 -0.1492 -0.0478 -0.3079
    1DIPC   D3A26695  18.533  30.147   4.349 -0.0610  0.0415  0.0513
    1DIPC   C4A26696  18.955  30.329   4.249 -0.0411  0.1757  0.1405
    1DIPC   C1B26697  18.118  29.840   4.353 -0.2460  0.0884 -0.1609
    1DIPC   D2B26698  18.374  29.821   4.810 -0.0807  0.2450  0.3297
    1DIPC   D3B26699  18.540  29.527   4.636  0.0099 -0.2409  0.1443
    1DIPC   C4B26700  18.882  29.660   4.380 -0.1528 -0.3459  0.0240
    1DIPC   NC326701   8.730  21.486   2.460 -0.1121  0.0201 -0.0351
    1DIPC   PO426702   8.333  21.541   2.398 -0.2853 -0.3531 -0.5014
    1DIPC   GL126703   8.341  21.259   2.728 -0.0613 -0.0929  0.1708
    1DIPC   GL226704   7.916  21.162   2.835  0.0172 -0.2549  0.3968
    1DIPC   C1A26705   8.262  21.536   3.035 -0.0562  0.2093 -0.2884
    1DIPC   D2A26706   8.352  21.850   3.313 -0.0571  0.0724 -0.0484
    1DIPC   D3A26707   7.940  21.851   3.575  0.0775  0.1031  0.0762
    1DIPC   C4A26708   7.941  21.594   3.943 -0.3844 -0.0540  0.1893
    1DIPC   C1B26709   7.690  20.836   2.826 -0.1615  0.2387  0.1351
    1DIPC   D2B26710   7.720  20.494   3.054  0.0386  0.0569  0.1302
    1DIPC   D3B26711   7.666  20.682   3.399  0.1207 -0.0751  0.1072
    1DIPC   C4B26712   7.415  20.479   3.551  0.1193  0.0234 -0.0100
    1DIPC   NC326713  16.316  21.643   2.572  0.1428 -0.0023  0.0087
    1DIPC   PO426714  16.269  22.187   2.532 -0.0675  0.0174 -0.1475
    1DIPC   GL126715  16.262  22.255   2.989 -0.4199 -0.0523 -0.2041
    1DIPC   GL226716  16.197  21.946   3.088 -0.1267 -0.2055 -0.1283
    1DIPC   C1A26717  16.270  22.267   3.428 -0.0872 -0.0013 -0.0701
    1DIPC   D2A26718  16.276  22.413   3.864 -0.0242  0.2812 -0.3735
    1DIPC   D3A26719  16.312  22.107   4.261 -0.0141  0.0686 -0.1563
    1DIPC   C4A26720  16.734  22.042   4.604 -0.3385 -0.1102 -0.0160
    1DIPC   C1B26721  16.180  21.737   3.397 -0.1719 -0.2073 -0.0804
    1DIPC   D2B26722  16.018  21.988   3.674 -0.1745 -0.0095 -0.1486
    1DIPC   D3B26723  15.808  21.909   4.112 -0.0356  0.4398  0.0375
    1DIPC   C4B26724  15.295  21.702   4.218  0.2107 -0.0524  0.2879
    1DIPC   NC326725  14.384  12.817   3.712 -0.3724  0.1113 -0.1158
    1DIPC   PO426726  14.591  12.802   3.971 -0.0867  0.0496 -0.2656
    1DIPC   GL126727  14.571  12.560   4.317 -0.1585 -0.3442 -0.1252
    1DIPC   GL226728  14.757  12.325   4.243  0.0494  0.1171  0.1632
    1DIPC   C1A26729  14.759  12.596   4.738 -0.0534  0.2659 -0.3756
    1DIPC   D2A26730  15.016  12.705   5.059  0.0732  0.2780  0.0976
    1DIPC   D3A26731  14.986  12.731   5.582  0.3312  0.0658 -0.0221
    1DIPC   C4A26732  14.676  12.928   5.700 -0.1869  0.1688  0.1063
    1DIPC   C1B26733  14.797  12.059   4.623  0.0274  0.0568 -0.1179
    1DIPC   D2B26734  15.094  12.152   4.941 -0.3184  0.2332  0.3470
    1DIPC   D3B26735  14.841  12.337   5.333 -0.4185 -0.0934  0.2265
    1DIPC   C4B26736  14.523  12.567   5.345 -0.1017 -0.2609 -0.2891
    1DIPC   NC326737  19.993  19.855   1.766 -0.0821  0.3047  0.1002
    1DIPC   PO426738  19.827  19.970   2.199 -0.1590 -0.3130  0.1056
    1DIPC   GL126739  19.906  19.809   2.526  0.0081  0.1203  0.0800
    1DIPC   GL226740  20.087  20.044   2.741 -0.0833  0.0791  0.4655
    1DIPC   C1A26741  19.756  19.488   2.802  0.0405  0.1675  0.2423
    1DIPC   D2A26742  19.559  19.296   3.125 -0.1224  0.3890 -0.0864
    1DIPC   D3A26743  19.317  19.502   3.374 -0.0606  0.1567 -0.0371
    1DIPC   C4A26744  19.162  19.741   3.719 -0.2813 -0.0819  0.1356
    1DIPC   C1B26745  20.079  20.052   3.193 -0.1053  0.0519  0.1825
    1DIPC   D2B26746  20.304  20.081   3.598 -0.1747  0.1064  0.1593
    1DIPC   D3B26747  20.643  19.889   3.525 -0.0098 -0.1146 -0.1884
    1DIPC   C4B26748  21.109  19.707   3.761 -0.0288  0.2172  0.3313
    1DIPC   NC326749   1.628   9.298   2.742 -0.1285  0.2491 -0.2311
    1DIPC   PO426750   1.722   8.912   2.743 -0.2145  0.0787  0.1575
    1DIPC   GL126751   1.729   8.676   3.145 -0.3405  0.0685  0.2737
    1DIPC   GL226752   1.847   8.850   3.380  0.3962  0.1647  0.0226
    1DIPC   C1A26753   1.590   8.380   3.466 -0.1281  0.0812  0.0373
    1DIPC   D2A26754   1.531   8.217   3.910 -0.0934 -0.0072 -0.2551
    1DIPC   D3A26755   1.924   8.223   4.198 -0.1261 -0.2407 -0.1765
    1DIPC   C4A26756   2.071   8.017   4.636 -0.3478  0.0503  0.2959
    1DIPC   C1B26757   1.983   9.012   3.791 -0.2584  0.0905  0.1231
    1DIPC   D2B26758   1.725   9.091   4.187 -0.1469  0.0643 -0.0237
    1DIPC   D3B26759   2.168   9.348   4.349  0.0039 -0.0881 -0.3817
    1DIPC   C4B26760   2.270   9.746   4.547 -0.3560  0.0811  0.3090
    1DIPC   NC326761   6.192  30.230   3.141 -0.0064  0.2066  0.2740
    1DIPC   PO426762   6.633  30.175   2.985  0.1119 -0.0903 -0.1774
    1DIPC   GL126763   6.511  30.178   3.499 -0.0467  0.0209 -0.0361
    1DIPC   GL226764   6.737  30.329   3.655  0.2010 -0.2389  0.1926
    1DIPC   C1A26765   6.260  29.790   3.705  0.0214  0.0088  0.0712
    1DIPC   D2A26766   6.222  29.387   4.044 -0.0900 -0.1567 -0.2635
    1DIPC   D3A26767   6.315  29.274   4.483 -0.1313  0.1173 -0.0938
    1DIPC   C4A26768   6.392  29.202   4.993  0.1953 -0.1341 -0.0616
    1DIPC   C1B26769   6.343  30.315   3.959  0.3754 -0.0456  0.2147
    1DIPC   D2B26770   5.888  30.180   4.159  0.1242  0.2850  0.1023
    1DIPC   D3B26771   5.632   0.207   4.336 -0.1362  0.0604 -0.1145
    1DIPC   C4B26772   5.770   0.407   4.745 -0.3159  0.0073  0.4033
    1DIPC   NC326773  26.863   7.865   2.664  0.2091  0.1339 -0.0895
    1DIPC   PO426774  26.423   7.977   2.575 -0.0922  0.0202 -0.3020
    1DIPC   GL126775  26.572   8.188   2.938 -0.2586  0.2240  0.0433
    1DIPC   GL226776  26.469   8.417   2.907 -0.1586 -0.0149  0.2932
    1DIPC   C1A26777  26.524   8.197   3.379  0.1756 -0.0175 -0.1390
    1DIPC   D2A26778  26.398   8.330   3.723 -0.0747 -0.1201  0.0639
    1DIPC   D3A26779  26.379   8.173   4.066  0.0669  0.1168 -0.2190
    1DIPC   C4A26780  26.640   8.413   4.400 -0.1167  0.2214  0.0270
    1DIPC   C1B26781  26.116   8.507   3.213 -0.2421  0.0616  0.2026
    1DIPC   D2B26782  26.031   8.570   3.591  0.0620  0.0175 -0.0695
    1DIPC   D3B26783  26.186   8.633   4.053 -0.1743  0.0178 -0.0225
    1DIPC   C4B26784  26.598   8.904   4.239 -0.2808  0.1166 -0.2308
    1DIPC   NC326785  14.578   4.289   2.535  0.1864 -0.1795 -0.0907
    1DIPC   PO426786  14.431   4.719   2.610 -0.0957  0.1507  0.1858
    1DIPC   GL126787  14.696   4.773   2.918  0.1159 -0.0123  0.0058
    1DIPC   GL226788  14.665   4.505   3.051 -0.1267 -0.0896  0.0140
    1DIPC   C1A26789  14.627   4.967   3.377 -0.2360  0.6288 -0.0350
    1DIPC   D2A26790  14.627   5.403   3.679  0.1553 -0.2221 -0.2957
    1DIPC   D3A26791  15.018   5.736   3.648 -0.1081 -0.0043  0.1731
    1DIPC   C4A26792  15.344   5.830   3.283 -0.0776  0.3237  0.2024
    1DIPC   C1B26793  14.376   4.342   3.430 -0.0477  0.2116 -0.0641
    1DIPC   D2B26794  14.449   4.445   3.879  0.2165  0.0537  0.1290
    1DIPC   D3B26795  14.156   4.399   4.262 -0.0857 -0.3314  0.3224
    1DIPC   C4B26796  14.353   4.414   4.629  0.0157 -0.1463  0.0591
    1DIPC   NC326797   6.018  17.431   1.701 -0.2307 -0.1418 -0.1289
    1DIPC   PO426798   5.990  16.954   1.844  0.0326  0.0543  0.2717
    1DIPC   GL126799   5.943  16.745   2.216 -0.1120 -0.0764 -0.0536
    1DIPC   GL226800   5.711  16.991   2.331 -0.3107  0.2337 -0.2946
    1DIPC   C1A26801   6.109  16.826   2.586  0.1233  0.0080 -0.2766
    1DIPC   D2A26802   6.130  16.893   2.964  0.1546  0.0777  0.1821
    1DIPC   D3A26803   6.219  17.384   3.136 -0.2384  0.0943 -0.3180
    1DIPC   C4A26804   6.073  17.825   3.222 -0.2738 -0.0715  0.2235
    1DIPC   C1B26805   5.810  17.266   2.623 -0.3391  0.1558 -0.1372
    1DIPC   D2B26806   6.002  17.628   2.744  0.1718 -0.3109  0.1261
    1DIPC   D3B26807   5.721  17.407   3.071 -0.0688 -0.1879  0.1859
    1DIPC   C4B26808   5.676  17.696   3.433 -0.0028  0.0769  0.0971
    1DIPC   NC326809   8.605  27.003   2.069  0.2932 -0.3314 -0.0619
    1DIPC   PO426810   8.617  27.140   2.512  0.1781 -0.0110 -0.1415
    1DIPC   GL126811   8.410  26.878   2.825 -0.1478 -0.2727  0.0244
    1DIPC   GL226812   8.666  26.893   3.042  0.1489  0.0830 -0.1767
    1DIPC   C1A26813   8.115  26.795   3.176  0.0660 -0.2460 -0.0731
    1DIPC   D2A26814   7.835  26.528   3.483 -0.0395 -0.0546  0.2128
    1DIPC   D3A26815   7.670  26.117   3.621 -0.0887  0.2778  0.2610
    1DIPC   C4A26816   7.835  25.932   3.996 -0.1472  0.2768 -0.0051
    1DIPC   C1B26817   8.459  27.253   3.245 -0.0304  0.2357 -0.0859
    1DIPC   D2B26818   8.769  27.429   3.410 -0.0400  0.0652  0.1966
    1DIPC   D3B26819   8.855  27.403   3.769 -0.4097 -0.0115 -0.0533
    1DIPC   C4B26820   8.822  27.238   4.161  0.4471 -0.2908  0.2403
    1DIPC   NC326821   6.830   0.658   3.269 -0.1316 -0.2355  0.2972
    1DIPC   PO426822   7.204   0.536   3.032 -0.2186 -0.0836 -0.3198
    1DIPC   GL126823   7.266   0.845   3.420  0.0627  0.1912  0.0561
    1DIPC   GL226824   7.560   0.899   3.549  0.0744 -0.2570 -0.3353
    1DIPC   C1A26825   7.118   1.038   3.776 -0.0538  0.1894 -0.1822
    1DIPC   D2A26826   7.175   1.284   4.090  0.0818 -0.0985  0.1222
    1DIPC   D3A26827   7.301   0.958   4.377 -0.1095  0.1104 -0.0577
    1DIPC   C4A26828   7.667   0.791   4.615 -0.0320  0.0381  0.1443
    1DIPC   C1B26829   7.729   1.058   3.966 -0.0597 -0.3901  0.0181
    1DIPC   D2B26830   8.031   1.428   3.958  0.1373 -0.0608  0.0601
    1DIPC   D3B26831   7.950   1.526   4.395 -0.2495  0.0339 -0.0699
    1DIPC   C4B26832   7.904   1.249   4.687 -0.0575 -0.3034  0.3071
    1DIPC   NC326833  15.626  24.295   2.679 -0.3077 -0.0215  0.3195
    1DIPC   PO426834  15.403  23.845   2.785  0.0630  0.1371  0.0754
    1DIPC   GL126835  15.324  23.545   3.119 -0.1298  0.3335  0.3685
    1DIPC   GL226836  15.608  23.396   3.284  0.0182 -0.0297 -0.1981
    1DIPC   C1A26837  15.187  23.137   3.271 -0.3870 -0.0797  0.0319
    1DIPC   D2A26838  15.132  22.989   3.680 -0.3469  0.2507 -0.2146
    1DIPC   D3A26839  14.822  22.725   3.733 -0.1693 -0.1352 -0.0930
    1DIPC   C4A26840  14.618  22.438   4.083 -0.0608  0.2491 -0.2922
    1DIPC   C1B26841  16.078  23.265   3.515 -0.0464  0.2055  0.1202
    1DIPC   D2B26842  16.226  23.361   3.938  0.3194 -0.3025  0.1417
    1DIPC   D3B26843  15.847  23.639   3.926 -0.0676 -0.1231 -0.0334
    1DIPC   C4B26844  15.621  23.831   3.571  0.0634  0.0685  0.2414
    1DIPC   NC326845  16.395  23.428   2.237  0.0616  0.1832 -0.2101
    1DIPC   PO426846  16.200  23.268   2.644 -0.0927 -0.1027  0.6351
    1DIPC   GL126847  16.098  23.102   3.028  0.1827 -0.1002 -0.1209
    1DIPC   GL226848  16.474  23.039   3.067 -0.1048 -0.1520 -0.0962
    1DIPC   C1A26849  16.065  22.747   3.365 -0.3194  0.1209 -0.3182
    1DIPC   D2A26850  15.800  22.496   3.663 -0.1676  0.1082  0.1286
    1DIPC   D3A26851  15.788  22.441   4.023 -0.0889 -0.1161 -0.1108
    1DIPC   C4A26852  15.952  22.327   4.413  0.0917 -0.3585  0.3597
    1DIPC   C1B26853  16.518  23.030   3.468  0.0647  0.0153  0.0758
    1DIPC   D2B26854  16.420  22.917   3.852  0.0341  0.2143  0.1872
    1DIPC   D3B26855  16.533  23.202   4.287  0.0646 -0.2493  0.1515
    1DIPC   C4B26856  16.577  22.989   4.667  0.2201  0.2354  0.1726
    1DIPC   NC326857   9.282   3.141   2.829 -0.0648 -0.2215  0.1910
    1DIPC   PO426858   9.609   3.492   2.933  0.3170  0.0730 -0.1687
    1DIPC   GL126859   9.624   3.674   3.312  0.2073 -0.0568  0.3439
    1DIPC   GL226860   9.604   3.430   3.515  0.0799  0.0956 -0.0780
    1DIPC   C1A26861   9.846   3.839   3.672  0.0331 -0.0688 -0.0265
    1DIPC   D2A26862  10.154   3.678   4.018  0.2675 -0.1977  0.1068
    1DIPC   D3A26863  10.213   3.793   4.506  0.1265 -0.1273  0.2428
    1DIPC   C4A26864  10.282   4.075   4.915  0.0158  0.4018  0.0703
    1DIPC   C1B26865   9.931   3.278   3.723  0.1298  0.1137 -0.0052
    1DIPC   D2B26866  10.074   2.845   3.929 -0.0118  0.0574  0.1282
    1DIPC   D3B26867  10.379   2.902   4.197 -0.1584 -0.0705 -0.0923
    1DIPC   C4B26868  10.746   3.059   4.147  0.2372 -0.0485 -0.0954
    1DIPC   NC326869  16.760   9.436   1.829 -0.1669 -0.2387  0.1619
    1DIPC   PO426870  16.898   9.679   2.156  0.3054  0.0086  0.0361
    1DIPC   GL126871  16.628   9.834   2.565 -0.2328 -0.1900 -0.1223
    1DIPC   GL226872  16.366   9.543   2.686  0.2124 -0.1058 -0.0929
    1DIPC   C1A26873  16.728   9.697   2.982 -0.1284 -0.0927  0.3006
    1DIPC   D2A26874  16.307   9.865   3.283 -0.1734  0.3121  0.0527
    1DIPC   D3A26875  16.537   9.687   3.490 -0.0907 -0.2426  0.1277
    1DIPC   C4A26876  16.930   9.377   3.363  0.1041  0.0790 -0.0292
    1DIPC   C1B26877  16.448   9.299   3.105  0.0550 -0.0040  0.2559
    1DIPC   D2B26878  16.567   9.101   3.421 -0.1099  0.3094  0.0222
    1DIPC   D3B26879  16.208   8.915   3.317 -0.1346  0.1118 -0.0971
    1DIPC   C4B26880  15.821   8.864   3.671 -0.3581 -0.0497  0.3006
    1DIPC   NC326881   7.999   1.831   3.085  0.1945 -0.0628  0.3477
    1DIPC   PO426882   7.556   1.877   3.237 -0.0373 -0.0354  0.2558
    1DIPC   GL126883   7.302   2.034   3.583 -0.1467  0.1570  0.1202
    1DIPC   GL226884   7.179   1.828   3.878  0.0064 -0.1054  0.1592
    1DIPC   C1A26885   7.251   2.376   3.950 -0.0412  0.1560 -0.3133
    1DIPC   D2A26886   7.357   2.291   4.435  0.0393 -0.2031  0.0581
    1DIPC   D3A26887   7.620   1.961   4.509 -0.2450  0.0335  0.0323
    1DIPC   C4A26888   7.975   2.153   4.682  0.0098 -0.1626  0.0566
    1DIPC   C1B26889   7.120   1.845   4.315 -0.1416 -0.1068  0.0809
    1DIPC   D2B26890   7.238   1.943   4.799 -0.2358 -0.0226 -0.0492
    1DIPC   D3B26891   7.034   1.524   4.795  0.0228 -0.3798 -0.2564
    1DIPC   C4B26892   7.202   1.132   4.870 -0.1017 -0.1279  0.3770
    1DIPC   NC326893   5.706   9.435   2.438  0.0991  0.2690 -0.1531
    1DIPC   PO426894   5.440   9.018   2.537 -0.0760 -0.0490 -0.1029
    1DIPC   GL126895   5.478   8.885   2.990 -0.2474 -0.0051  0.3466
    1DIPC   GL226896   5.180   8.912   3.098  0.0614  0.2905  0.1490
    1DIPC   C1A26897   5.615   8.892   3.500 -0.0078  0.1491  0.0772
    1DIPC   D2A26898   5.726   8.430   3.739  0.0689  0.0355  0.2886
    1DIPC   D3A26899   5.416   8.674   3.913  0.3235  0.0425 -0.1249
    1DIPC   C4A26900   5.415   8.720   4.394 -0.1425  0.0216 -0.1759
    1DIPC   C1B26901   5.234   8.545   3.395  0.0947  0.1135  0.2197
    1DIPC   D2B26902   5.339   8.123   3.434  0.0968 -0.3057  0.0114
    1DIPC   D3B26903   5.239   8.176   3.831 -0.1724 -0.0424  0.0946
    1DIPC   C4B26904   5.480   8.254   4.171 -0.2151  0.3558 -0.6002
    1DIPC   NC326905  12.923  27.553   3.357 -0.0252 -0.2304 -0.0728
    1DIPC   PO426906  13.108  27.278   3.481  0.2651  0.3064 -0.1624
    1DIPC   GL126907  13.026  27.107   3.827  0.0043  0.2052  0.0031
    1DIPC   GL226908  13.439  27.013   3.905  0.1477 -0.0800 -0.2189
    1DIPC   C1A26909  12.848  26.969   4.207  0.0288  0.1545 -0.0271
    1DIPC   D2A26910  12.889  27.200   4.632  0.0505  0.1877  0.1210
    1DIPC   D3A26911  12.399  27.151   4.725 -0.3709 -0.2279 -0.1108
    1DIPC   C4A26912  12.141  27.456   4.515 -0.1947 -0.0186  0.0774
    1DIPC   C1B26913  13.496  26.898   4.287 -0.1713 -0.0908  0.1732
    1DIPC   D2B26914  13.341  26.977   4.563  0.0913  0.2978  0.0356
    1DIPC   D3B26915  13.154  26.728   4.893 -0.0774 -0.0943  0.2527
    1DIPC   C4B26916  12.682  26.722   4.821 -0.0543  0.0119 -0.1864
    1DIPC   NC326917  22.518  20.182   1.458  0.1201 -0.0368 -0.2844
    1DIPC   PO426918  22.518  20.103   1.907  0.3176 -0.0542 -0.3128
    1DIPC   GL126919  22.708  20.288   2.245 -0.0933  0.2018 -0.0018
    1DIPC   GL226920  23.004  20.060   2.438  0.3261  0.2541  0.1209
    1DIPC   C1A26921  22.499  20.466   2.628  0.2581  0.4176 -0.0113
    1DIPC   D2A26922  22.357  20.919   2.801  0.1026 -0.0981 -0.1135
    1DIPC   D3A26923  22.326  20.852   3.307  0.0437  0.1820  0.0716
    1DIPC   C4A26924  22.218  20.595   3.686 -0.2731  0.2892  0.3296
    1DIPC   C1B26925  22.715  19.784   2.670  0.0779 -0.1776 -0.1089
    1DIPC   D2B26926  22.765  19.444   2.915 -0.1396  0.0166  0.3359
    1DIPC   D3B26927  22.629  19.775   3.238  0.3313 -0.0165  0.2361
    1DIPC   C4B26928  22.490  20.105   3.004 -0.2107  0.0499 -0.1683
    1DIPC   NC326929  25.179  11.543   2.167  0.0089  0.1058 -0.1327
    1DIPC   PO426930  24.847  11.873   2.079  0.0396 -0.2204  0.0455
    1DIPC   GL126931  24.912  11.819   2.540 -0.1814  0.0631  0.0661
    1DIPC   GL226932  24.823  12.039   2.671  0.3177 -0.1863  0.1010
    1DIPC   C1A26933  24.808  11.669   3.016  0.1501 -0.1565  0.4762
    1DIPC   D2A26934  24.686  11.347   3.287  0.0230 -0.1581 -0.1674
    1DIPC   D3A26935  24.877  10.868   3.403 -0.1999  0.0751 -0.1276
    1DIPC   C4A26936  24.585  10.474   3.497 -0.2834 -0.0683  0.3477
    1DIPC   C1B26937  24.865  12.125   3.142  0.3390 -0.2778 -0.0475
    1DIPC   D2B26938  24.740  12.268   3.519 -0.0223 -0.0825 -0.0166
    1DIPC   D3B26939  24.341  12.093   3.790 -0.1551 -0.2792 -0.0916
    1DIPC   C4B26940  23.867  12.158   3.672  0.0533  0.0904 -0.2614
    1DIPC   NC326941  26.763  11.621   2.063  0.2124  0.2429 -0.1120
    1DIPC   PO426942  26.393  11.582   2.260  0.1021 -0.2361  0.3078
    1DIPC   GL126943  26.278  11.347   2.611  0.0812  0.0654  0.0697
    1DIPC   GL226944  25.990  11.178   2.599 -0.0354  0.0822 -0.2311
    1DIPC   C1A26945  26.059  11.444   3.001 -0.0822 -0.1663  0.1864
    1DIPC   D2A26946  25.763  11.219   3.295 -0.1964 -0.2790  0.1195
    1DIPC   D3A26947  25.826  10.741   3.252  0.0472 -0.2570  0.1123
    1DIPC   C4A26948  26.029  10.605   3.593 -0.0071 -0.1465 -0.1531
    1DIPC   C1B26949  25.662  10.961   2.772  0.0486 -0.1484 -0.0334
    1DIPC   D2B26950  25.252  10.812   2.696 -0.1318 -0.2499  0.1982
    1DIPC   D3B26951  24.983  11.148   2.628  0.1714  0.1843 -0.0665
    1DIPC   C4B26952  24.662  11.225   2.760 -0.0646  0.1828  0.0439
    1DIPC   NC326953   9.029  24.801   2.229 -0.2767  0.1051 -0.0577
    1DIPC   PO426954   8.674  24.843   2.504 -0.0140  0.3279  0.0131
    1DIPC   GL126955   8.792  24.568   2.682  0.0657 -0.0138 -0.2676
    1DIPC   GL226956   8.698  24.659   2.978  0.0170 -0.1243 -0.4919
    1DIPC   C1A26957   9.167  24.468   3.032  0.0977  0.3554  0.1027
    1DIPC   D2A26958   9.550  24.543   3.122 -0.0012 -0.0145  0.2030
    1DIPC   D3A26959   9.495  24.111   3.244 -0.0520  0.1107  0.2172
    1DIPC   C4A26960   9.105  23.976   3.421  0.0304 -0.2824  0.1758
    1DIPC   C1B26961   8.725  24.362   3.240  0.0713 -0.1294 -0.0423
    1DIPC   D2B26962   8.575  24.257   3.636  0.2298  0.0946  0.0788
    1DIPC   D3B26963   8.646  23.986   3.936 -0.1559  0.2730 -0.1468
    1DIPC   C4B26964   8.911  23.690   3.771 -0.0561 -0.1855 -0.1508
    1DIPC   NC326965  20.914  26.821   2.857 -0.2618 -0.1672 -0.3563
    1DIPC   PO426966  20.831  26.449   3.106 -0.4036 -0.0632  0.0021
    1DIPC   GL126967  20.798  26.504   3.545  0.1019  0.0764 -0.0556
    1DIPC   GL226968  20.645  26.262   3.800  0.0011 -0.2024  0.2365
    1DIPC   C1A26969  20.819  26.710   4.003 -0.4297  0.1712 -0.1329
    1DIPC   D2A26970  20.803  26.827   4.536  0.3001  0.0897 -0.1460
    1DIPC   D3A26971  20.421  26.826   4.799 -0.0225 -0.0515  0.1361
    1DIPC   C4A26972  20.094  26.616   4.626  0.2199  0.0776  0.1595
    1DIPC   C1B26973  20.485  26.302   4.235  0.0924 -0.1807  0.0066
    1DIPC   D2B26974  20.435  26.099   4.605 -0.0706  0.2152  0.0538
    1DIPC   D3B26975  20.145  26.220   4.893  0.1185  0.2388 -0.2076
    1DIPC   C4B26976  19.721  25.995   4.719  0.2000  0.0010  0.0616
    1DIPC   NC326977  19.427  28.966   3.361 -0.2931  0.0738 -0.0285
    1DIPC   PO426978  19.401  29.422   3.247  0.1868 -0.1675 -0.0064
    1DIPC   GL126979  19.310  29.313   3.691  0.1170  0.0315  0.2965
    1DIPC   GL226980  19.655  29.156   3.825 -0.0539  0.0440  0.0936
    1DIPC   C1A26981  18.957  29.288   3.985 -0.0426 -0.0707 -0.1875
    1DIPC   D2A26982  18.763  29.083   4.418 -0.0773 -0.0256  0.1839
    1DIPC   D3A26983  19.196  29.218   4.600 -0.2406  0.3700  0.3697
    1DIPC   C4A26984  19.459  29.438   4.793 -0.0260 -0.0196 -0.6773
    1DIPC   C1B26985  19.803  29.200   4.289 -0.1221 -0.0029  0.1220
    1DIPC   D2B26986  19.974  29.417   4.623  0.0023 -0.2065 -0.0162
    1DIPC   D3B26987  20.301  29.303   4.312 -0.1796  0.0044 -0.2791
    1DIPC   C4B26988  20.181  29.067   4.027 -0.2381  0.1313 -0.2939
    1DIPC   NC326989   6.032  28.850   3.404 -0.0055  0.0644 -0.1412
    1DIPC   PO426990   5.571  28.907   3.529  0.0304 -0.3098 -0.0497
    1DIPC   GL126991   5.512  29.005   3.972 -0.1451  0.2080  0.1387
    1DIPC   GL226992   5.127  28.890   3.892  0.2261 -0.0701  0.2341
    1DIPC   C1A26993   5.788  29.192   4.356 -0.2929  0.3158  0.1374
    1DIPC   D2A26994   5.861  29.435   4.761 -0.0072  0.3572 -0.2868
    1DIPC   D3A26995   5.966  28.969   4.800 -0.2787 -0.0007 -0.0143
    1DIPC   C4A26996   6.224  28.802   4.421 -0.1162 -0.1125  0.1564
    1DIPC   C1B26997   5.038  29.005   4.334 -0.0147  0.1790  0.0790
    1DIPC   D2B26998   5.130  28.845   4.796 -0.0217  0.2302  0.0935
    1DIPC   D3B26999   4.958  28.351   4.765  0.0912  0.0669  0.0062
    1DIPC   C4B27000   5.150  28.203   4.919 -0.0962 -0.1105  0.0844
    1DIPC   NC327001  16.839  29.282   3.083 -0.0563 -0.1417  0.1943
    1DIPC   PO427002  16.679  28.857   2.980  0.1446  0.1133 -0.0239
    1DIPC   GL127003  16.531  28.941   3.472 -0.1729 -0.2155 -0.1962
    1DIPC   GL227004  16.496  28.711   3.635 -0.2829 -0.2119 -0.2900
    1DIPC   C1A27005  16.564  29.212   3.740 -0.1033 -0.1700  0.2866
    1DIPC   D2A27006  16.716  29.365   4.120  0.0517 -0.1016  0.0914
    1DIPC   D3A27007  16.657  29.120   4.546  0.0920 -0.1067  0.1856
    1DIPC   C4A27008  17.063  29.146   4.802  0.1472 -0.1087 -0.0347
    1DIPC   C1B27009  16.826  28.313   3.682  0.0987  0.1561 -0.0378
    1DIPC   D2B27010  17.010  27.963   3.988  0.0290 -0.0687  0.1452
    1DIPC   D3B27011  16.979  28.031   4.383 -0.1181  0.2171  0.0954
    1DIPC   C4B27012  16.628  28.140   4.653 -0.1675 -0.0677 -0.0964
    1DIPC   NC327013  12.911  12.036   3.555  0.0483 -0.1673 -0.0590
    1DIPC   PO427014  13.229  11.676   3.575  0.0636  0.1171  0.0681
    1DIPC   GL127015  13.174  11.395   3.877 -0.1111 -0.1055 -0.0119
    1DIPC   GL227016  12.918  11.250   3.842  0.1017 -0.0795  0.2791
    1DIPC   C1A27017  13.078  11.481   4.303  0.0889  0.2225 -0.3056
    1DIPC   D2A27018  12.923  11.138   4.630 -0.1366 -0.0025  0.2940
    1DIPC   D3A27019  12.976  11.258   4.923  0.2759 -0.1376  0.1733
    1DIPC   C4A27020  13.165  11.301   5.318 -0.2928  0.1873 -0.0310
    1DIPC   C1B27021  12.926  10.926   4.058  0.1084  0.4051 -0.0039
    1DIPC   D2B27022  12.999  10.488   3.954 -0.1613 -0.0216  0.0351
    1DIPC   D3B27023  13.091  10.353   4.361  0.1431  0.2180 -0.1471
    1DIPC   C4B27024  13.269  10.640   4.614  0.1372  0.0802  0.0371
    1DIPC   NC327025  22.575  16.296   2.316 -0.0085 -0.0002 -0.1536
    1DIPC   PO427026  22.557  16.812   2.369 -0.2871 -0.5042 -0.2557
    1DIPC   GL127027  22.497  16.716   2.751 -0.0841 -0.2039 -0.1689
    1DIPC   GL227028  22.742  16.428   2.787  0.3883  0.0053  0.1293
    1DIPC   C1A27029  22.290  16.636   3.170  0.0495 -0.1082 -0.3970
    1DIPC   D2A27030  21.943  16.472   3.428  0.0094 -0.3643  0.0778
    1DIPC   D3A27031  22.196  16.145   3.104 -0.0380  0.0908 -0.1832
    1DIPC   C4A27032  22.610  16.249   3.288  0.0989 -0.0797 -0.2487
    1DIPC   C1B27033  22.853  16.691   3.138  0.1192  0.1621  0.2308
    1DIPC   D2B27034  22.900  16.737   3.621  0.2007 -0.0943  0.1097
    1DIPC   D3B27035  22.852  16.535   3.855  0.1093  0.0317 -0.0696
    1DIPC   C4B27036  22.420  16.491   3.754 -0.3114  0.2748  0.2222
    1DIPC   NC327037  19.482  18.081   1.669  0.1508  0.4303  0.2674
    1DIPC   PO427038  19.724  18.239   2.076 -0.0184 -0.0975  0.2460
    1DIPC   GL127039  19.847  18.407   2.477 -0.4355 -0.2457  0.2407
    1DIPC   GL227040  19.643  18.312   2.830  0.3134  0.3098  0.0379
    1DIPC   C1A27041  19.925  18.708   2.807 -0.0788  0.0084  0.3046
    1DIPC   D2A27042  19.761  18.859   3.187 -0.0323  0.1432  0.0385
    1DIPC   D3A27043  19.635  18.441   3.375 -0.1532 -0.1574  0.2789
    1DIPC   C4A27044  19.563  18.365   3.866 -0.2027  0.0045  0.0189
    1DIPC   C1B27045  19.358  18.731   3.003 -0.0386 -0.0336 -0.0068
    1DIPC   D2B27046  19.301  18.978   3.393  0.4285 -0.0160 -0.0705
    1DIPC   D3B27047  19.008  18.687   3.417 -0.3421 -0.3342 -0.0484
    1DIPC   C4B27048  19.118  18.324   3.130 -0.3399  0.1169  0.0487
    1DIPC   NC327049  17.300  11.507   2.677 -0.0382  0.1430 -0.1144
    1DIPC   PO427050  16.982  11.151   2.528 -0.1511  0.1080  0.2631
    1DIPC   GL127051  17.068  11.124   3.035  0.1736 -0.2097  0.2743
    1DIPC   GL227052  17.308  11.030   3.162 -0.2585  0.0361  0.0092
    1DIPC   C1A27053  16.941  11.218   3.502 -0.0732 -0.1257  0.2221
    1DIPC   D2A27054  16.598  11.456   3.664  0.0401  0.0821 -0.0179
    1DIPC   D3A27055  16.508  11.248   4.072 -0.0226 -0.1104 -0.2607
    1DIPC   C4A27056  16.334  11.452   4.460 -0.0407 -0.0973  0.0854
    1DIPC   C1B27057  17.162  10.659   3.520  0.0823 -0.3943 -0.3055
    1DIPC   D2B27058  16.871  10.297   3.790 -0.0943 -0.0278 -0.2120
    1DIPC   D3B27059  16.842  10.251   4.219 -0.0338 -0.0456  0.0524
    1DIPC   C4B27060  17.210  10.288   4.453 -0.0180  0.2420  0.3502
    1DIPC   NC327061  12.087  21.381   1.715 -0.0644 -0.0164 -0.0604
    1DIPC   PO427062  11.970  21.555   2.127  0.1242 -0.2467  0.2345
    1DIPC   GL127063  12.136  21.556   2.500  0.0946 -0.2941 -0.1181
    1DIPC   GL227064  12.428  21.418   2.735 -0.2181  0.1007 -0.1356
    1DIPC   C1A27065  12.110  21.895   2.869 -0.1632 -0.4873  0.1396
    1DIPC   D2A27066  11.911  22.323   2.982 -0.3761 -0.0025 -0.4396
    1DIPC   D3A27067  12.377  22.552   3.047  0.1018 -0.1753  0.0918
    1DIPC   C4A27068  12.472  22.597   3.519 -0.0032  0.2943 -0.0887
    1DIPC   C1B27069  12.047  21.344   3.025 -0.3439 -0.0121  0.0852
    1DIPC   D2B27070  11.746  21.224   3.342  0.3659 -0.1407 -0.2001
    1DIPC   D3B27071  11.474  20.847   3.171 -0.2892  0.0811  0.2085
    1DIPC   C4B27072  11.349  20.361   3.263  0.1863 -0.1011 -0.0317
    1DIPC   NC327073  26.442   1.325   4.025  0.0875  0.0204 -0.0202
    1DIPC   PO427074  26.007   1.200   3.968 -0.0585  0.3393 -0.1700
    1DIPC   GL127075  26.094   1.281   4.405  0.1664 -0.2611 -0.0212
    1DIPC   GL227076  26.277   1.577   4.603  0.2090 -0.0062 -0.0717
    1DIPC   C1A27077  25.740   1.522   4.582  0.0282 -0.0289  0.0022
    1DIPC   D2A27078  25.306   1.333   4.762 -0.0393 -0.0116 -0.2072
    1DIPC   D3A27079  24.919   1.536   4.818 -0.5444  0.0072 -0.3702
    1DIPC   C4A27080  24.838   1.565   5.160  0.1714 -0.2624  0.0610
    1DIPC   C1B27081  26.039   1.331   4.949  0.1617 -0.2938  0.0935
    1DIPC   D2B27082  25.847   1.246   5.343 -0.1630  0.1927 -0.1757
    1DIPC   D3B27083  25.636   1.067   5.069 -0.2249 -0.0613 -0.2803
    1DIPC   C4B27084  25.870   0.747   4.847  0.3601  0.1470 -0.0793
    1DIPC   NC327085  28.689   6.438   3.185 -0.1582 -0.2925  0.3087
    1DIPC   PO427086  28.415   6.667   2.877 -0.0856 -0.2055  0.6022
    1DIPC   GL127087  28.163   6.835   3.288  0.3777  0.0133 -0.1276
    1DIPC   GL227088  28.215   7.063   3.526  0.2558 -0.1116  0.0148
    1DIPC   C1A27089  27.941   6.674   3.629  0.2277 -0.0753 -0.4084
    1DIPC   D2A27090  27.845   6.666   4.110  0.1201  0.0824  0.1655
    1DIPC   D3A27091  27.394   6.701   3.900  0.1579  0.2204 -0.2053
    1DIPC   C4A27092  27.081   7.005   3.856 -0.1684  0.2047 -0.2622
    1DIPC   C1B27093  27.989   7.098   3.899  0.2220  0.0570 -0.0521
    1DIPC   D2B27094  27.900   7.417   4.202  0.2177  0.0041 -0.0315
    1DIPC   D3B27095  28.093   7.068   4.470  0.0605 -0.1474  0.0651
    1DIPC   C4B27096  28.069   7.110   4.912  0.1750  0.1485 -0.2125
    1DIPC   NC327097   8.201   0.412   2.953 -0.0026  0.0332  0.0591
    1DIPC   PO427098   8.021   0.178   3.180 -0.0916  0.0421  0.1069
    1DIPC   GL127099   8.009   0.157   3.618 -0.0385 -0.0290 -0.5340
    1DIPC   GL227100   8.162  30.202   3.677  0.1090 -0.1605 -0.0794
    1DIPC   C1A27101   8.020   0.198   4.003  0.0599 -0.1867 -0.1159
    1DIPC   D2A27102   7.890   0.348   4.425 -0.1743 -0.0547  0.0576
    1DIPC   D3A27103   7.607   0.556   4.121 -0.0930 -0.2638 -0.0597
    1DIPC   C4A27104   7.281   0.576   3.864 -0.0751 -0.0030 -0.0814
    1DIPC   C1B27105   7.892  30.087   4.006  0.1445 -0.2183 -0.4401
    1DIPC   D2B27106   7.748  30.243   4.345  0.1209 -0.1117  0.0747
    1DIPC   D3B27107   7.423   0.038   4.072  0.2441 -0.0115  0.3885
    1DIPC   C4B27108   7.544   0.155   3.707 -0.0733 -0.1595 -0.2047
    1DIPC   NC327109  25.866  27.983   3.581 -0.2602  0.0035  0.0039
    1DIPC   PO427110  25.407  28.085   3.594 -0.3620  0.2269 -0.2013
    1DIPC   GL127111  25.189  28.132   3.972  0.1427  0.0519 -0.1162
    1DIPC   GL227112  25.255  28.484   4.120 -0.2509 -0.0386  0.3181
    1DIPC   C1A27113  24.944  27.739   4.113  0.4134 -0.0449 -0.0055
    1DIPC   D2A27114  24.624  27.300   4.100 -0.1377 -0.4370  0.2021
    1DIPC   D3A27115  24.385  27.274   4.509 -0.2738 -0.0940  0.4251
    1DIPC   C4A27116  24.689  27.273   4.941  0.2380  0.1107 -0.0174
    1DIPC   C1B27117  25.301  28.652   4.507 -0.3400  0.0871  0.0425
    1DIPC   D2B27118  25.585  28.583   4.848 -0.0363 -0.0739 -0.1495
    1DIPC   D3B27119  25.432  28.125   4.974 -0.1462  0.3725  0.0311
    1DIPC   C4B27120  25.752  27.979   5.091  0.0222  0.1514  0.0792
    1DIPC   NC327121  19.803   2.829   2.999  0.1240  0.0535 -0.1044
    1DIPC   PO427122  19.321   3.098   2.916  0.0695  0.0038  0.0599
    1DIPC   GL127123  19.400   3.070   3.371 -0.1156 -0.2627 -0.1338
    1DIPC   GL227124  19.683   2.913   3.467  0.0211 -0.0599 -0.1913
    1DIPC   C1A27125  19.439   3.151   3.813  0.0046  0.0563 -0.3616
    1DIPC   D2A27126  19.259   3.411   4.103  0.0629 -0.2347 -0.0459
    1DIPC   D3A27127  18.829   3.181   4.231 -0.0440  0.0651  0.1656
    1DIPC   C4A27128  18.746   3.167   4.634  0.3814  0.0870 -0.1794
    1DIPC   C1B27129  19.684   2.636   3.907  0.0853  0.0325 -0.2678
    1DIPC   D2B27130  19.699   2.229   4.005 -0.0066  0.0002  0.4113
    1DIPC   D3B27131  19.604   1.946   4.376  0.1672 -0.3900 -0.2607
    1DIPC   C4B27132  19.512   2.148   4.797  0.1705  0.2561  0.1938
    1DIPC   NC327133  13.910   9.525   2.599 -0.1175  0.0312 -0.1679
    1DIPC   PO427134  13.561   9.198   2.812  0.0177  0.1936  0.0813
    1DIPC   GL127135  13.922   9.108   3.042 -0.2055 -0.0066  0.2674
    1DIPC   GL227136  14.215   8.940   3.061  0.2129 -0.1890 -0.0996
    1DIPC   C1A27137  14.120   9.307   3.416  0.1580 -0.3813  0.0462
    1DIPC   D2A27138  13.928   9.140   3.702  0.0902 -0.2417 -0.4944
    1DIPC   D3A27139  14.138   8.818   3.879  0.2332 -0.0054 -0.2313
    1DIPC   C4A27140  14.243   8.767   4.293 -0.0638 -0.2606 -0.0290
    1DIPC   C1B27141  14.420   8.728   3.467  0.0579  0.4642 -0.2976
    1DIPC   D2B27142  14.579   8.535   3.929 -0.1432  0.1219  0.0179
    1DIPC   D3B27143  15.009   8.636   4.136 -0.0191 -0.0753  0.2205
    1DIPC   C4B27144  15.080   8.132   4.208 -0.0919 -0.3226  0.1875
    1DIPC   NC327145  15.828  25.118   2.491 -0.0581 -0.0733  0.1416
    1DIPC   PO427146  15.615  24.758   2.725  0.0123  0.1467 -0.1261
    1DIPC   GL127147  15.672  24.648   3.128  0.1775  0.0211 -0.2034
    1DIPC   GL227148  16.036  24.574   3.104 -0.1626  0.1585  0.0489
    1DIPC   C1A27149  15.586  24.802   3.537 -0.0230 -0.4152 -0.2786
    1DIPC   D2A27150  15.531  24.950   4.023  0.0767 -0.2982 -0.1922
    1DIPC   D3A27151  15.410  24.536   4.186  0.2416  0.0413 -0.0573
    1DIPC   C4A27152  15.226  24.618   4.607 -0.0694 -0.3886  0.0341
    1DIPC   C1B27153  15.994  24.486   3.456 -0.2117 -0.1135  0.2195
    1DIPC   D2B27154  15.764  24.382   3.834  0.1753  0.1225  0.2737
    1DIPC   D3B27155  16.097  24.458   4.126 -0.0140 -0.0790  0.0483
    1DIPC   C4B27156  16.408  24.719   4.066  0.0449 -0.1154  0.1846
    1DIPC   NC327157   9.340  21.314   1.921 -0.0246  0.3383  0.2699
    1DIPC   PO427158   9.093  21.180   2.265 -0.2239  0.1774  0.2441
    1DIPC   GL127159   9.221  21.358   2.640  0.0816 -0.2085 -0.0402
    1DIPC   GL227160   9.275  21.138   2.839  0.0845 -0.0659  0.2812
    1DIPC   C1A27161   8.969  21.474   3.033 -0.1157  0.0762  0.0046
    1DIPC   D2A27162   8.719  21.480   3.406  0.0643 -0.0841 -0.2461
    1DIPC   D3A27163   8.701  21.133   3.610  0.0091 -0.0158 -0.1498
    1DIPC   C4A27164   8.431  20.825   3.565  0.2447  0.2644  0.2381
    1DIPC   C1B27165   9.155  21.090   3.242 -0.0668 -0.6006 -0.1347
    1DIPC   D2B27166   9.231  21.296   3.642 -0.0061  0.2543  0.0920
    1DIPC   D3B27167   8.984  21.376   3.912 -0.0016 -0.1975 -0.0788
    1DIPC   C4B27168   9.074  21.180   4.337  0.0695 -0.0101 -0.0873
    1DIPC   NC327169  21.740  12.022   2.295 -0.0427 -0.1800  0.2638
    1DIPC   PO427170  21.986  11.944   1.932  0.2633  0.3634  0.1046
    1DIPC   GL127171  22.241  12.015   2.336  0.0934  0.2844 -0.0183
    1DIPC   GL227172  22.282  11.716   2.532  0.1122  0.2729  0.4362
    1DIPC   C1A27173  22.352  12.172   2.738  0.0248  0.0588 -0.0610
    1DIPC   D2A27174  22.369  12.191   3.180 -0.0716  0.0478 -0.0898
    1DIPC   D3A27175  22.178  12.500   3.352 -0.0762 -0.0231  0.0783
    1DIPC   C4A27176  22.087  12.578   3.774 -0.1107 -0.3252  0.1207
    1DIPC   C1B27177  22.201  11.751   2.968 -0.2544  0.1913 -0.3092
    1DIPC   D2B27178  22.470  11.708   3.338  0.0157 -0.2513 -0.1585
    1DIPC   D3B27179  22.684  11.370   3.457  0.2331  0.2774  0.2567
    1DIPC   C4B27180  22.445  11.265   3.896  0.0570 -0.0147 -0.0589
    1DIPC   NC327181   0.279   2.164   3.658  0.0919 -0.0684  0.3915
    1DIPC   PO427182   0.236   2.598   3.685 -0.1456 -0.0488  0.1489
    1DIPC   GL127183   0.548   2.511   4.091  0.2837 -0.3863 -0.0549
    1DIPC   GL227184   0.982   2.457   4.181  0.1049  0.2755 -0.0783
    1DIPC   C1A27185   0.644   2.106   4.379  0.1688 -0.0342  0.0199
    1DIPC   D2A27186   0.577   1.729   4.639  0.1521 -0.0555  0.0219
    1DIPC   D3A27187   0.886   1.804   4.912  0.0083 -0.2439  0.1073
    1DIPC   C4A27188   0.819   1.941   5.332  0.0122 -0.1733 -0.0510
    1DIPC   C1B27189   0.759   2.542   4.580  0.0630 -0.0411  0.1716
    1DIPC   D2B27190   0.612   2.745   5.055  0.0209 -0.0440 -0.0126
    1DIPC   D3B27191   0.569   3.005   4.818  0.1228  0.0396 -0.1068
    1DIPC   C4B27192   0.108   3.164   4.923 -0.0593  0.0332 -0.0345
    1DIPC   NC327193  17.958  14.486   2.688 -0.0001  0.2557 -0.3448
    1DIPC   PO427194  18.085  14.092   2.516  0.3266  0.2902 -0.0105
    1DIPC   GL127195  18.267  14.043   2.972 -0.0230  0.0332 -0.4113
    1DIPC   GL227196  17.976  14.021   3.190 -0.1579 -0.1966  0.2899
    1DIPC   C1A27197  18.466  14.215   3.324 -0.0079  0.2372  0.1686
    1DIPC   D2A27198  18.516  14.201   3.818 -0.1152 -0.3364  0.2245
    1DIPC   D3A27199  18.307  14.595   3.930 -0.2474 -0.0521 -0.0699
    1DIPC   C4A27200  18.460  14.786   4.293  0.0225  0.1630 -0.1600
    1DIPC   C1B27201  18.009  14.284   3.581 -0.0642 -0.0741  0.0223
    1DIPC   D2B27202  17.998  14.141   4.045 -0.1709 -0.5243  0.3684
    1DIPC   D3B27203  17.852  14.548   4.144  0.2994  0.4083  0.4087
    1DIPC   C4B27204  17.921  14.770   4.536  0.3786  0.1154  0.0578
    1DIPC   NC327205  21.018  29.442   3.091 -0.2674 -0.1203  0.0510
    1DIPC   PO427206  21.451  29.324   3.251 -0.0779 -0.5974 -0.0074
    1DIPC   GL127207  21.412  29.543   3.652 -0.1642  0.1660  0.0434
    1DIPC   GL227208  21.422  29.244   3.812 -0.0814  0.0694  0.1603
    1DIPC   C1A27209  21.583  29.924   3.789  0.0045 -0.0535 -0.0969
    1DIPC   D2A27210  21.430  30.268   3.612  0.4002 -0.1323 -0.1228
    1DIPC   D3A27211  21.400   0.317   3.621 -0.0575 -0.0621 -0.0266
    1DIPC   C4A27212  21.475   0.789   3.597 -0.0989 -0.2114  0.3231
    1DIPC   C1B27213  21.262  29.205   4.290  0.3559 -0.0743  0.1633
    1DIPC   D2B27214  21.165  29.345   4.689 -0.0184 -0.1670  0.1546
    1DIPC   D3B27215  20.729  29.350   4.812 -0.0476 -0.0980 -0.0939
    1DIPC   C4B27216  20.325  29.079   4.787 -0.0649 -0.1381 -0.0315
    1DIPC   NC327217  27.670   0.721   3.482  0.2932  0.3319  0.1156
    1DIPC   PO427218  27.279   1.008   3.552 -0.0512  0.0648  0.0045
    1DIPC   GL127219  27.356   1.089   4.006  0.0993 -0.1485  0.0672
    1DIPC   GL227220  27.243   0.795   4.062  0.0661 -0.0894 -0.0744
    1DIPC   C1A27221  27.489   0.955   4.429 -0.1258  0.0808 -0.0376
    1DIPC   D2A27222  27.957   1.008   4.662  0.1464  0.0532 -0.1195
    1DIPC   D3A27223  27.566   0.888   5.047 -0.3602  0.0779 -0.0902
    1DIPC   C4A27224  27.458   1.295   5.296 -0.0808  0.1914  0.0694
    1DIPC   C1B27225  27.006   0.620   4.269 -0.1751 -0.0472  0.1408
    1DIPC   D2B27226  26.801   0.196   4.439 -0.1670  0.1881  0.0744
    1DIPC   D3B27227  27.094   0.239   4.902 -0.2811  0.0204 -0.2784
    1DIPC   C4B27228  27.344   0.533   4.638 -0.0975  0.3999 -0.0026
    1DIPC   NC327229  14.885  28.825   3.037 -0.1139 -0.0226  0.1062
    1DIPC   PO427230  14.752  28.337   3.149  0.2700 -0.0974  0.3197
    1DIPC   GL127231  14.796  28.164   3.672  0.1379  0.3197  0.1964
    1DIPC   GL227232  14.793  27.796   3.748  0.0504 -0.2543  0.0701
    1DIPC   C1A27233  14.478  28.065   3.964 -0.4452 -0.1406  0.0137
    1DIPC   D2A27234  14.230  27.852   4.151  0.0791 -0.1604 -0.2754
    1DIPC   D3A27235  14.295  27.688   4.520  0.1290  0.1950 -0.2307
    1DIPC   C4A27236  14.543  27.897   4.854 -0.0417 -0.0514 -0.2950
    1DIPC   C1B27237  14.991  27.852   4.130 -0.2061 -0.3406 -0.1788
    1DIPC   D2B27238  15.084  28.261   4.401  0.1289 -0.0917  0.0544
    1DIPC   D3B27239  14.875  28.380   4.831  0.2042  0.1994 -0.0993
    1DIPC   C4B27240  15.200  28.361   5.243  0.0534 -0.0401 -0.0785
    1DIPC   NC327241  17.758  13.838   2.742 -0.1086  0.0223 -0.1698
    1DIPC   PO427242  17.668  13.574   3.011  0.0247  0.0664 -0.0993
    1DIPC   GL127243  17.823  13.606   3.337 -0.0963 -0.0107 -0.1924
    1DIPC   GL227244  17.766  13.851   3.637 -0.2726  0.1638 -0.0137
    1DIPC   C1A27245  18.229  13.764   3.520 -0.0347 -0.1408 -0.3132
    1DIPC   D2A27246  18.433  13.714   3.879 -0.4690 -0.4308  0.0815
    1DIPC   D3A27247  18.468  14.048   4.294  0.0463 -0.1518 -0.0499
    1DIPC   C4A27248  18.023  14.215   4.523 -0.0001 -0.0942  0.0427
    1DIPC   C1B27249  17.618  13.745   4.009  0.0138  0.2258 -0.3970
    1DIPC   D2B27250  17.480  13.651   4.407  0.1829  0.2280  0.1324
    1DIPC   D3B27251  17.656  13.823   4.705 -0.3614  0.2795  0.2670
    1DIPC   C4B27252  17.613  14.101   4.948  0.0186  0.1988 -0.1160
    1DIPC   NC327253  12.720  14.037   3.407 -0.0153 -0.2919 -0.0226
    1DIPC   PO427254  12.778  14.441   3.336 -0.0674  0.1951  0.3751
    1DIPC   GL127255  12.629  14.473   3.717  0.3534 -0.4988 -0.0688
    1DIPC   GL227256  12.539  14.155   3.886  0.1649 -0.0020  0.1662
    1DIPC   C1A27257  12.407  14.668   4.139 -0.1027  0.1563 -0.0434
    1DIPC   D2A27258  12.101  14.682   4.379 -0.0525  0.2463 -0.0853
    1DIPC   D3A27259  11.835  14.887   4.428  0.0098 -0.4026 -0.1856
    1DIPC   C4A27260  11.483  14.779   4.517  0.0017  0.2131  0.0434
    1DIPC   C1B27261  12.403  14.234   4.350 -0.2152 -0.0763  0.1281
    1DIPC   D2B27262  12.536  14.463   4.610  0.1269 -0.1821  0.1549
    1DIPC   D3B27263  12.701  14.292   4.978  0.2604  0.0552 -0.1439
    1DIPC   C4B27264  12.942  14.195   5.288 -0.1311  0.1997  0.1553
    1DIPC   NC327265   8.521  21.104   2.251  0.1750  0.2682  0.1944
    1DIPC   PO427266   8.776  20.970   2.568 -0.1881  0.2068  0.0297
    1DIPC   GL127267   8.663  20.948   3.040  0.2155 -0.1735  0.2787
    1DIPC   GL227268   8.420  21.158   3.191  0.2293 -0.0619  0.0035
    1DIPC   C1A27269   8.921  20.708   3.418 -0.1130 -0.0112  0.0572
    1DIPC   D2A27270   9.152  20.916   3.883 -0.0587  0.0751 -0.0351
    1DIPC   D3A27271   8.730  20.864   4.036  0.1875  0.1515 -0.0158
    1DIPC   C4A27272   8.519  21.040   4.462 -0.0171 -0.0389  0.3033
    1DIPC   C1B27273   8.257  21.392   3.574  0.0580  0.0092 -0.1654
    1DIPC   D2B27274   8.318  21.242   4.034 -0.0618 -0.0871  0.2025
    1DIPC   D3B27275   8.194  20.893   3.981  0.2444 -0.0737 -0.1134
    1DIPC   C4B27276   7.771  20.687   4.067  0.1579  0.0575 -0.4107
    1DIPC   NC327277  11.304  26.244   2.382  0.1369  0.0162 -0.3090
    1DIPC   PO427278  11.458  25.831   2.493 -0.1287 -0.6441  0.2139
    1DIPC   GL127279  11.158  25.888   2.746 -0.0287  0.0372 -0.1474
    1DIPC   GL227280  11.180  26.186   2.864 -0.1196  0.0170 -0.4509
    1DIPC   C1A27281  10.965  25.829   3.204  0.0280  0.0692  0.0704
    1DIPC   D2A27282  10.975  25.486   3.522  0.0815 -0.1719 -0.0462
    1DIPC   D3A27283  10.737  25.482   3.943 -0.2957 -0.2298 -0.4170
    1DIPC   C4A27284  10.792  25.509   4.381 -0.0214 -0.0551  0.0835
    1DIPC   C1B27285  11.454  26.214   3.247 -0.0818  0.0601 -0.3630
    1DIPC   D2B27286  11.864  26.397   3.435  0.1537 -0.1031 -0.2264
    1DIPC   D3B27287  11.884  25.930   3.394 -0.0965  0.2923  0.1040
    1DIPC   C4B27288  11.452  25.760   3.348 -0.1440  0.1489 -0.2491
    1DIPC   NC327289  20.465  11.952   2.902  0.0549  0.1800  0.1171
    1DIPC   PO427290  20.067  11.699   2.717 -0.0494 -0.2775 -0.1316
    1DIPC   GL127291  19.919  11.947   3.017 -0.2616 -0.1780  0.2312
    1DIPC   GL227292  20.148  11.829   3.272 -0.1435 -0.1365  0.2867
    1DIPC   C1A27293  19.760  12.111   3.365 -0.1001 -0.5347  0.1983
    1DIPC   D2A27294  19.725  12.328   3.703 -0.0745  0.1190 -0.1731
    1DIPC   D3A27295  20.111  12.079   3.700 -0.0506  0.1680  0.1807
    1DIPC   C4A27296  20.195  11.966   4.064  0.0836  0.0288 -0.0846
    1DIPC   C1B27297  20.349  11.631   3.655  0.1367 -0.0694  0.1978
    1DIPC   D2B27298  20.210  11.441   3.942  0.2166  0.0812 -0.2539
    1DIPC   D3B27299  19.767  11.278   3.973  0.2343 -0.2359  0.1899
    1DIPC   C4B27300  19.608  11.169   4.433  0.0432 -0.0323 -0.4248
    1DIPC   NC327301   8.611  23.506   1.796  0.1277 -0.2106 -0.0537
    1DIPC   PO427302   8.241  23.665   1.997 -0.0660 -0.0401  0.1039
    1DIPC   GL127303   8.111  23.843   2.456 -0.1080 -0.0622 -0.0272
    1DIPC   GL227304   8.361  24.163   2.434 -0.0562  0.2688  0.1381
    1DIPC   C1A27305   7.877  23.761   2.789  0.0416 -0.2006 -0.0675
    1DIPC   D2A27306   7.504  23.763   3.075  0.0341  0.0004  0.4141
    1DIPC   D3A27307   7.680  23.934   3.447 -0.2044  0.0626 -0.1914
    1DIPC   C4A27308   7.783  23.584   3.700 -0.1311 -0.1806  0.0818
    1DIPC   C1B27309   8.381  24.025   2.838 -0.1471 -0.1269  0.1225
    1DIPC   D2B27310   8.255  23.665   3.107 -0.1405 -0.1779 -0.1482
    1DIPC   D3B27311   7.968  23.517   3.243 -0.2665 -0.0444  0.1659
    1DIPC   C4B27312   7.805  23.254   3.050 -0.0640 -0.1399  0.1623
    1DIPC   NC327313  19.304  25.036   2.599 -0.0673 -0.1019  0.1244
    1DIPC   PO427314  19.646  24.818   2.453 -0.0551  0.1413  0.1949
    1DIPC   GL127315  19.666  24.679   2.858  0.1241  0.2568 -0.6625
    1DIPC   GL227316  19.757  24.422   2.836  0.0775  0.2009  0.1115
    1DIPC   C1A27317  19.644  24.383   3.312  0.1331 -0.1754  0.0261
    1DIPC   D2A27318  19.736  24.028   3.486 -0.1323 -0.1384 -0.1742
    1DIPC   D3A27319  19.844  23.925   3.941 -0.1068  0.1120  0.2533
    1DIPC   C4A27320  19.544  23.754   4.185  0.0937  0.3646 -0.0083
    1DIPC   C1B27321  20.092  24.234   3.157 -0.1841 -0.0474  0.3479
    1DIPC   D2B27322  20.458  24.110   3.425  0.0434 -0.1394 -0.2285
    1DIPC   D3B27323  20.242  23.850   3.606 -0.0093  0.0643 -0.2246
    1DIPC   C4B27324  20.318  23.378   3.726  0.1377  0.4100  0.2130
    1DIPC   NC327325  30.197  30.253   3.573 -0.2035 -0.0482  0.0683
    1DIPC   PO427326   0.271  30.234   3.477 -0.0310  0.1302  0.1022
    1DIPC   GL127327   0.233  30.204   3.920 -0.0710  0.0902 -0.2520
    1DIPC   GL227328  30.292  30.118   4.043 -0.1305  0.1215 -0.2104
    1DIPC   C1A27329   0.364   0.063   4.344 -0.0753  0.1575  0.0226
    1DIPC   D2A27330   0.579   0.393   4.752  0.2583 -0.0305 -0.0144
    1DIPC   D3A27331   0.369   0.597   4.966 -0.0505 -0.1669  0.1841
    1DIPC   C4A27332   0.115   0.346   5.292  0.2540 -0.0509 -0.3802
    1DIPC   C1B27333   0.018  30.090   4.561  0.2370  0.0049 -0.1026
    1DIPC   D2B27334  30.232  30.162   4.963  0.1091  0.2743 -0.0697
    1DIPC   D3B27335  30.330   0.249   4.842  0.0760  0.2751  0.3478
    1DIPC   C4B27336  30.183   0.568   4.866 -0.0428 -0.1288 -0.0324
    1DIPC   NC327337  12.656  16.792   3.049 -0.0510  0.2353 -0.0530
    1DIPC   PO427338  12.501  16.440   3.134  0.0177 -0.0529 -0.0359
    1DIPC   GL127339  12.682  16.459   3.644 -0.1042  0.3509 -0.0318
    1DIPC   GL227340  12.705  16.788   3.553 -0.0462  0.0588  0.0861
    1DIPC   C1A27341  12.672  16.512   3.997 -0.2968 -0.1418  0.0405
    1DIPC   D2A27342  12.550  16.560   4.495 -0.1898  0.1355  0.4519
    1DIPC   D3A27343  12.552  16.182   4.642  0.2065 -0.0362 -0.0996
    1DIPC   C4A27344  12.821  15.895   4.683  0.1803  0.0201  0.1504
    1DIPC   C1B27345  13.020  17.162   3.537 -0.0406  0.1101 -0.3416
    1DIPC   D2B27346  13.450  17.280   3.613  0.2301  0.0451  0.1946
    1DIPC   D3B27347  13.650  17.125   3.947 -0.2116  0.1240 -0.1277
    1DIPC   C4B27348  13.586  16.558   4.002 -0.1718 -0.4955 -0.1928
    1DIPC   NC327349  22.318  11.052   1.535  0.1960  0.2207  0.0961
    1DIPC   PO427350  22.564  11.210   1.899  0.0248  0.4138 -0.1583
    1DIPC   GL127351  22.468  11.227   2.366  0.1338  0.1751  0.1532
    1DIPC   GL227352  22.176  11.197   2.478 -0.2553  0.0537 -0.1892
    1DIPC   C1A27353  22.574  10.926   2.694  0.0394 -0.2212  0.2386
    1DIPC   D2A27354  22.631  10.883   3.117  0.1619 -0.0663  0.1033
    1DIPC   D3A27355  22.947  11.106   3.092 -0.1538 -0.1073  0.3224
    1DIPC   C4A27356  23.321  10.999   3.102 -0.4035  0.0752 -0.2996
    1DIPC   C1B27357  22.031  11.322   2.875  0.1031  0.0775  0.1780
    1DIPC   D2B27358  22.081  11.298   3.333  0.2862 -0.0345  0.0022
    1DIPC   D3B27359  21.740  11.160   3.558 -0.1129  0.0024 -0.3481
    1DIPC   C4B27360  21.565  11.342   3.908 -0.0291 -0.0827  0.3230
    1DIPC   NC327361  28.868   1.066   3.142  0.2386 -0.2258 -0.2485
    1DIPC   PO427362  29.221   1.090   3.504  0.2284  0.1440 -0.0672
    1DIPC   GL127363  29.139   1.028   3.894 -0.0655 -0.1797 -0.0254
    1DIPC   GL227364  28.891   1.094   4.050 -0.0989 -0.1250  0.2302
    1DIPC   C1A27365  29.409   1.192   4.255 -0.1753 -0.1774  0.1945
    1DIPC   D2A27366  29.860   1.268   4.543  0.0033  0.0660 -0.1140
    1DIPC   D3A27367  29.835   1.478   5.013 -0.3805  0.1069  0.0565
    1DIPC   C4A27368  29.656   1.912   5.052  0.0894  0.2520 -0.2469
    1DIPC   C1B27369  28.946   1.055   4.580 -0.2115  0.0700 -0.0165
    1DIPC   D2B27370  28.827   0.869   4.921 -0.0143 -0.1263 -0.2611
    1DIPC   D3B27371  29.048   1.330   5.001 -0.2109 -0.1095 -0.0219
    1DIPC   C4B27372  29.386   1.281   4.800  0.0460 -0.0820 -0.2840
    1DIPC   NC327373  24.664  12.924   1.798 -0.5136  0.1028 -0.0898
    1DIPC   PO427374  24.918  12.806   2.183 -0.0296 -0.1764  0.1091
    1DIPC   GL127375  24.753  12.704   2.588 -0.1535  0.1294  0.0604
    1DIPC   GL227376  24.933  12.524   2.821  0.3277 -0.3614 -0.0743
    1DIPC   C1A27377  24.448  12.384   2.701  0.1943 -0.2805 -0.0537
    1DIPC   D2A27378  24.361  12.034   2.900  0.0676 -0.3275  0.3127
    1DIPC   D3A27379  24.256  11.624   2.636  0.0886 -0.1690  0.0389
    1DIPC   C4A27380  24.224  11.311   2.973 -0.2502 -0.1378 -0.2104
    1DIPC   C1B27381  24.682  12.841   3.075  0.0871 -0.2015 -0.1592
    1DIPC   D2B27382  24.596  13.235   3.230 -0.0713 -0.0509 -0.0017
    1DIPC   D3B27383  24.603  13.089   3.578  0.3979 -0.1056  0.2527
    1DIPC   C4B27384  24.482  12.701   3.833  0.0418  0.1974  0.0253
    1DIPC   NC327385   6.754  22.969   2.372 -0.0324 -0.0717  0.3226
    1DIPC   PO427386   6.997  23.404   2.186 -0.3001 -0.0463  0.3723
    1DIPC   GL127387   6.807  23.658   2.543 -0.0425  0.3871  0.2360
    1DIPC   GL227388   6.983  23.513   2.809  0.1306 -0.1026 -0.2116
    1DIPC   C1A27389   6.651  23.892   2.854 -0.0929  0.2409  0.0717
    1DIPC   D2A27390   6.284  24.045   2.995 -0.0128  0.2068 -0.0958
    1DIPC   D3A27391   5.887  24.001   3.071 -0.2304  0.5581  0.0775
    1DIPC   C4A27392   5.929  23.606   3.267 -0.0101  0.3994  0.0227
    1DIPC   C1B27393   7.280  23.324   3.118 -0.1227  0.3014 -0.1091
    1DIPC   D2B27394   7.463  23.199   3.514 -0.0380 -0.1404 -0.2525
    1DIPC   D3B27395   7.576  22.821   3.779  0.0611  0.2079 -0.2227
    1DIPC   C4B27396   7.798  22.940   4.049  0.0478  0.2343 -0.1239
    1DIPC   NC327397   0.259  26.819   3.524 -0.1796  0.0682  0.0046
    1DIPC   PO427398   0.292  26.445   3.397  0.1486  0.2709 -0.2048
    1DIPC   GL127399   0.339  26.292   3.848  0.0132 -0.0628 -0.3377
    1DIPC   GL227400   0.715  26.058   3.927 -0.0132  0.2605  0.0249
    1DIPC   C1A27401   0.239  26.025   4.220 -0.0816 -0.1109  0.1113
    1DIPC   D2A27402   0.028  26.033   4.566  0.4549 -0.1948  0.1190
    1DIPC   D3A27403   0.070  26.456   4.399  0.0714  0.2446  0.0918
    1DIPC   C4A27404  30.133  26.360   4.095 -0.3660  0.3458 -0.3641
    1DIPC   C1B27405   0.589  26.431   4.256  0.3494  0.3389 -0.1129
    1DIPC   D2B27406   0.366  26.790   4.121 -0.2578  0.0263 -0.0523
    1DIPC   D3B27407   0.297  26.907   4.563 -0.1014 -0.0577 -0.1118
    1DIPC   C4B27408   0.216  26.705   4.931  0.0441  0.1533  0.1572
    1DIPC   NC327409  12.065   2.008   2.942 -0.1043  0.1886 -0.0404
    1DIPC   PO427410  12.146   2.429   3.000 -0.1539  0.0082 -0.0177
    1DIPC   GL127411  12.187   2.432   3.430 -0.0878  0.2623 -0.2483
    1DIPC   GL227412  12.427   2.137   3.522  0.2607  0.1159 -0.0233
    1DIPC   C1A27413  11.912   2.710   3.738 -0.0510 -0.1191 -0.1696
    1DIPC   D2A27414  11.993   2.959   4.088  0.1551  0.0744 -0.3016
    1DIPC   D3A27415  11.632   3.138   4.091  0.2767  0.2602  0.0289
    1DIPC   C4A27416  11.637   3.571   4.334  0.1094 -0.0842 -0.0906
    1DIPC   C1B27417  12.331   2.168   3.944  0.2343 -0.0847 -0.0207
    1DIPC   D2B27418  11.935   2.005   4.191 -0.0879 -0.1669  0.1355
    1DIPC   D3B27419  11.830   2.305   4.539  0.0661 -0.2189  0.1106
    1DIPC   C4B27420  11.728   2.196   4.966  0.1820  0.0890  0.3284
    1DIPC   NC327421  21.466  22.214   2.104  0.0966  0.3524  0.2169
    1DIPC   PO427422  21.430  22.622   2.258  0.2970 -0.0765  0.4292
    1DIPC   GL127423  21.432  22.392   2.618 -0.0056 -0.1230  0.2483
    1DIPC   GL227424  21.445  22.659   2.888  0.1627 -0.1282 -0.1156
    1DIPC   C1A27425  21.697  22.256   3.070 -0.0881  0.1050 -0.0452
    1DIPC   D2A27426  21.755  22.126   3.498  0.0872  0.2742 -0.0913
    1DIPC   D3A27427  21.818  21.679   3.549  0.1201 -0.1463 -0.2568
    1DIPC   C4A27428  21.544  21.566   3.871 -0.0252 -0.0817  0.3217
    1DIPC   C1B27429  21.417  22.596   3.258 -0.0365 -0.0682  0.3145
    1DIPC   D2B27430  21.204  22.376   3.585 -0.0018  0.0832  0.0439
    1DIPC   D3B27431  21.386  22.011   3.744 -0.0917 -0.3622  0.0276
    1DIPC   C4B27432  21.747  21.996   3.989  0.1017  0.1077  0.0564
    1DIPC   NC327433  10.499  20.625   2.376  0.2964  0.1030  0.0512
    1DIPC   PO427434  10.253  20.279   2.385  0.1169  0.0152 -0.2165
    1DIPC   GL127435  10.137  20.519   2.688  0.2448  0.1642 -0.1328
    1DIPC   GL227436  10.029  20.855   2.548  0.1951  0.1942 -0.1494
    1DIPC   C1A27437  10.016  20.420   3.054  0.1338  0.3559  0.4046
    1DIPC   D2A27438  10.227  20.260   3.401 -0.2261  0.2042  0.4946
    1DIPC   D3A27439  10.040  19.953   3.551  0.0455 -0.2001 -0.0705
    1DIPC   C4A27440  10.134  19.857   3.987  0.0667  0.0587  0.0055
    1DIPC   C1B27441   9.832  21.222   2.809  0.1449 -0.0266  0.1196
    1DIPC   D2B27442   9.747  21.255   3.257 -0.1933  0.0323  0.1820
    1DIPC   D3B27443   9.909  21.258   3.732  0.0867  0.3709  0.0554
    1DIPC   C4B27444   9.541  21.290   4.114 -0.1337  0.0054  0.2440
    1DIPC   NC327445  12.866   4.125   2.354  0.3388  0.0803 -0.3992
    1DIPC   PO427446  12.787   3.687   2.758 -0.2264 -0.0311 -0.0309
    1DIPC   GL127447  13.016   3.829   3.215  0.1392  0.1949  0.1361
    1DIPC   GL227448  13.187   4.186   3.304  0.0919  0.0225 -0.0094
    1DIPC   C1A27449  12.751   4.218   3.507  0.3333  0.0772 -0.2004
    1DIPC   D2A27450  12.535   4.461   3.761 -0.1460 -0.1324 -0.2733
    1DIPC   D3A27451  12.344   4.046   3.772  0.0451 -0.1753  0.0880
    1DIPC   C4A27452  12.652   3.737   3.833 -0.0443  0.1340 -0.0198
    1DIPC   C1B27453  13.093   3.892   3.671 -0.1278  0.2781  0.1018
    1DIPC   D2B27454  13.049   3.703   4.171 -0.0196 -0.1792  0.1573
    1DIPC   D3B27455  12.846   4.187   4.022 -0.1632 -0.0878  0.1593
    1DIPC   C4B27456  12.813   4.506   4.201  0.0802 -0.0512 -0.3548
    1DIPC   NC327457  18.508   2.361   2.810  0.2550  0.1983 -0.0613
    1DIPC   PO427458  18.104   2.090   2.882 -0.1383  0.0179  0.0380
    1DIPC   GL127459  18.217   2.138   3.256 -0.0215  0.1932  0.0766
    1DIPC   GL227460  18.520   2.098   3.327 -0.0908  0.0590  0.0358
    1DIPC   C1A27461  18.038   2.227   3.697  0.0962  0.0930  0.4205
    1DIPC   D2A27462  18.348   2.254   3.979  0.0902  0.0755  0.2762
    1DIPC   D3A27463  18.277   1.872   4.193  0.1570 -0.2083  0.1753
    1DIPC   C4A27464  18.589   1.671   4.436  0.0338  0.0872 -0.0847
    1DIPC   C1B27465  18.703   1.931   3.636 -0.0658 -0.0837  0.0309
    1DIPC   D2B27466  18.744   1.748   3.950  0.3801 -0.1990  0.0863
    1DIPC   D3B27467  18.917   1.434   4.161 -0.0496  0.1047  0.0005
    1DIPC   C4B27468  18.929   1.387   4.693  0.2231  0.4499 -0.0839
    1DIPC   NC327469   3.226  15.423   2.020  0.0149  0.1591 -0.0389
    1DIPC   PO427470   3.162  14.989   1.840 -0.2335 -0.1607  0.1213
    1DIPC   GL127471   3.269  14.970   2.254 -0.0081  0.3325 -0.0680
    1DIPC   GL227472   3.570  14.933   2.377 -0.3075 -0.0496 -0.3217
    1DIPC   C1A27473   2.995  14.944   2.690 -0.3625  0.0725  0.0582
    1DIPC   D2A27474   3.059  14.999   3.076 -0.0796  0.1104 -0.2309
    1DIPC   D3A27475   2.976  14.955   3.478 -0.0020  0.0394  0.0504
    1DIPC   C4A27476   2.653  15.140   3.634 -0.0868  0.0710 -0.0559
    1DIPC   C1B27477   3.419  14.671   2.658  0.1807 -0.0369  0.2244
    1DIPC   D2B27478   3.464  14.748   3.078  0.3612 -0.1074 -0.2411
    1DIPC   D3B27479   3.431  14.779   3.478  0.1029 -0.1310  0.2061
    1DIPC   C4B27480   3.822  14.655   3.568  0.3342  0.0274 -0.0508
    1DIPC   NC327481  19.922  16.419   2.358  0.2996 -0.0304  0.1872
    1DIPC   PO427482  20.228  16.611   2.245  0.0524 -0.0964  0.2302
    1DIPC   GL127483  20.194  16.784   2.707  0.2147  0.0531  0.0934
    1DIPC   GL227484  20.197  17.196   2.680 -0.0011  0.3054  0.2141
    1DIPC   C1A27485  20.092  16.739   3.128  0.2942  0.0134  0.3024
    1DIPC   D2A27486  20.295  16.509   3.474  0.0872  0.0009  0.0765
    1DIPC   D3A27487  20.600  16.498   3.750 -0.1209  0.0419 -0.0932
    1DIPC   C4A27488  20.856  16.245   4.105  0.1521  0.2639  0.0033
    1DIPC   C1B27489  20.451  17.111   3.065 -0.1235  0.1522 -0.0604
    1DIPC   D2B27490  20.545  16.933   3.488 -0.1322 -0.2019  0.0142
    1DIPC   D3B27491  20.857  16.935   3.903  0.0828  0.0788  0.3146
    1DIPC   C4B27492  21.238  17.060   3.747  0.1592 -0.1768 -0.1297
    1DIPC   NC327493  18.509  19.564   2.227  0.4541 -0.1015  0.0743
    1DIPC   PO427494  18.063  19.333   2.260  0.1279 -0.1893  0.0596
    1DIPC   GL127495  18.299  19.347   2.646  0.0186  0.3650  0.2372
    1DIPC   GL227496  18.082  19.224   2.824 -0.2288 -0.0244 -0.0753
    1DIPC   C1A27497  18.566  19.053   2.840 -0.4101  0.0144 -0.2488
    1DIPC   D2A27498  18.929  18.803   2.714  0.1684  0.0184 -0.0509
    1DIPC   D3A27499  19.254  19.049   2.417 -0.2909 -0.1225  0.1910
    1DIPC   C4A27500  19.580  19.043   2.666  0.3146 -0.2102 -0.0386
    1DIPC   C1B27501  18.061  19.124   3.200 -0.2385  0.2241 -0.0236
    1DIPC   D2B27502  17.964  18.810   3.466 -0.3461 -0.1078  0.1682
    1DIPC   D3B27503  18.064  19.039   3.840 -0.2437 -0.2366 -0.3449
    1DIPC   C4B27504  18.209  18.868   4.196  0.0003  0.2070  0.1446
    1DIPC   NC327505  22.749   2.715   3.137  0.0106 -0.0816 -0.2188
    1DIPC   PO427506  22.856   3.040   3.021 -0.1302  0.0875  0.0956
    1DIPC   GL127507  22.949   2.955   3.543  0.1857  0.2052  0.0913
    1DIPC   GL227508  22.946   2.581   3.617  0.1174  0.0171  0.0267
    1DIPC   C1A27509  22.854   2.984   3.918  0.0740 -0.1034 -0.0219
    1DIPC   D2A27510  23.015   3.199   4.242 -0.2108 -0.1571 -0.3247
    1DIPC   D3A27511  22.842   3.236   4.671  0.3559  0.1583 -0.1261
    1DIPC   C4A27512  22.451   2.992   4.818 -0.0389  0.0477 -0.1117
    1DIPC   C1B27513  22.976   2.492   3.969 -0.1153  0.0360 -0.1596
    1DIPC   D2B27514  22.776   2.074   4.238 -0.1662  0.0923  0.3852
    1DIPC   D3B27515  22.847   1.751   3.940  0.1445 -0.1509  0.4465
    1DIPC   C4B27516  23.106   1.408   4.024 -0.0900  0.4233  0.0243
    1DIPC   NC327517  11.109  19.249   2.222  0.0101  0.0965  0.1312
    1DIPC   PO427518  10.990  19.751   2.189 -0.2452  0.1706  0.1214
    1DIPC   GL127519  11.192  19.670   2.537  0.1189 -0.0114 -0.1771
    1DIPC   GL227520  10.920  19.763   2.786  0.1158 -0.1011  0.4117
    1DIPC   C1A27521  11.686  19.622   2.664 -0.1621 -0.1875  0.0365
    1DIPC   D2A27522  12.027  19.378   2.523 -0.0677 -0.2297  0.0290
    1DIPC   D3A27523  12.243  19.732   2.453 -0.2729  0.0851 -0.1603
    1DIPC   C4A27524  11.999  19.990   2.428  0.4440 -0.1938 -0.2289
    1DIPC   C1B27525  11.248  19.621   3.030  0.1469  0.0427  0.1280
    1DIPC   D2B27526  11.608  19.733   3.198 -0.1116 -0.2056  0.2590
    1DIPC   D3B27527  11.707  19.298   3.021 -0.0235 -0.0522  0.2074
    1DIPC   C4B27528  12.075  19.009   3.081 -0.1439  0.0105 -0.2429
    1DIPC   NC327529  20.494  25.309   2.898 -0.2348  0.0177 -0.2664
    1DIPC   PO427530  20.662  24.923   2.838 -0.1778 -0.0934 -0.0278
    1DIPC   GL127531  20.642  24.793   3.285  0.3883  0.1811  0.1058
    1DIPC   GL227532  20.745  25.120   3.311  0.3184 -0.0179  0.2859
    1DIPC   C1A27533  20.609  24.592   3.649  0.1746  0.0140 -0.1737
    1DIPC   D2A27534  20.599  24.290   4.036  0.0062 -0.0162 -0.0924
    1DIPC   D3A27535  20.191  24.283   3.947  0.1723 -0.0276 -0.0183
    1DIPC   C4A27536  19.897  24.377   4.221  0.4018  0.3105  0.2037
    1DIPC   C1B27537  20.354  25.168   3.487  0.0127  0.2749  0.0465
    1DIPC   D2B27538  19.951  25.083   3.566  0.1444  0.0879 -0.0121
    1DIPC   D3B27539  19.693  24.908   3.298  0.0000 -0.1389  0.0159
    1DIPC   C4B27540  19.303  25.107   3.250  0.2364  0.1098  0.1149
    1DIPC   NC327541   8.186  17.894   1.918 -0.1583  0.1814 -0.2947
    1DIPC   PO427542   8.302  18.176   2.276  0.0493  0.0469 -0.1054
    1DIPC   GL127543   8.580  18.216   2.604  0.4871  0.0237 -0.0697
    1DIPC   GL227544   8.472  18.444   2.857  0.2859  0.2623 -0.0449
    1DIPC   C1A27545   8.823  18.046   2.948  0.2147  0.1037 -0.2604
    1DIPC   D2A27546   8.889  18.366   3.261 -0.1044  0.4234 -0.1700
    1DIPC   D3A27547   8.776  18.374   3.608 -0.0219 -0.0717  0.4081
    1DIPC   C4A27548   8.396  18.328   3.748 -0.3128 -0.3091  0.1845
    1DIPC   C1B27549   8.286  18.333   3.224  0.1750 -0.2366 -0.3726
    1DIPC   D2B27550   7.996  18.581   3.534 -0.0879 -0.1821 -0.0381
    1DIPC   D3B27551   8.167  18.852   3.871  0.0499  0.0235 -0.0462
    1DIPC   C4B27552   8.086  19.229   4.053 -0.1288  0.1987 -0.3935
    1DIPC   NC327553  21.183  17.126   2.336  0.0804  0.0035 -0.0387
    1DIPC   PO427554  20.866  16.934   2.182 -0.0284  0.4390  0.0721
    1DIPC   GL127555  20.651  16.722   2.469 -0.0997  0.3448 -0.3842
    1DIPC   GL227556  20.776  16.775   2.735  0.2491  0.2100 -0.2266
    1DIPC   C1A27557  20.747  16.276   2.658  0.1817 -0.0409  0.0838
    1DIPC   D2A27558  20.997  15.999   2.836  0.0914  0.0291  0.0886
    1DIPC   D3A27559  20.539  15.886   2.888  0.0339  0.1827 -0.4544
    1DIPC   C4A27560  20.310  16.167   3.057  0.1705  0.0678  0.1120
    1DIPC   C1B27561  20.587  16.583   3.068  0.1288  0.0062  0.1160
    1DIPC   D2B27562  20.697  16.268   3.291 -0.0303 -0.0664  0.1614
    1DIPC   D3B27563  20.869  15.869   3.319 -0.3889  0.1685 -0.0913
    1DIPC   C4B27564  20.942  15.568   3.615 -0.0380  0.3392  0.1441
    1DIPC   NC327565   2.844  28.228   2.999  0.0746 -0.1159  0.3129
    1DIPC   PO427566   2.697  28.056   3.436  0.0388  0.1460  0.0889
    1DIPC   GL127567   2.838  27.945   3.881 -0.2606  0.0364  0.0929
    1DIPC   GL227568   2.713  27.565   3.912 -0.0113  0.0595  0.3869
    1DIPC   C1A27569   2.976  28.048   4.300  0.0009 -0.0060 -0.1193
    1DIPC   D2A27570   3.341  28.033   4.543  0.0419 -0.1059  0.2127
    1DIPC   D3A27571   3.458  28.102   4.147  0.0798 -0.1909 -0.0562
    1DIPC   C4A27572   3.864  28.075   4.042  0.1500  0.3717 -0.2211
    1DIPC   C1B27573   2.438  27.725   4.077  0.1239 -0.3432 -0.3064
    1DIPC   D2B27574   2.090  27.965   4.155  0.0727 -0.4238 -0.2907
    1DIPC   D3B27575   1.961  28.155   4.513 -0.0080  0.3171 -0.0783
    1DIPC   C4B27576   1.984  28.576   4.556  0.3630 -0.2737 -0.0865
    1DIPC   NC327577  20.331  10.813   2.325 -0.1761 -0.4393  0.1587
    1DIPC   PO427578  20.128  10.719   2.651 -0.1548  0.0907 -0.2107
    1DIPC   GL127579  20.301  10.315   2.799  0.1334 -0.0119 -0.0580
    1DIPC   GL227580  20.646  10.414   2.914  0.2414  0.2714  0.0368
    1DIPC   C1A27581  20.483   9.890   2.967  0.2135 -0.0517 -0.0059
    1DIPC   D2A27582  20.715   9.526   3.038 -0.1823 -0.1196  0.2730
    1DIPC   D3A27583  20.432   9.683   3.420  0.3158 -0.0703 -0.2128
    1DIPC   C4A27584  20.315   9.366   3.668 -0.2870  0.1219 -0.0543
    1DIPC   C1B27585  20.986  10.573   3.170  0.0388  0.1478 -0.1929
    1DIPC   D2B27586  21.308  10.858   3.340  0.0169 -0.2509 -0.0212
    1DIPC   D3B27587  21.404  10.464   3.347 -0.0160 -0.2589 -0.2370
    1DIPC   C4B27588  21.632  10.214   3.139 -0.4402 -0.4255  0.2080
    1DIPC   NC327589  23.743  10.875   1.655  0.0967  0.1559 -0.0261
    1DIPC   PO427590  23.378  10.853   1.904  0.0090  0.2312 -0.0990
    1DIPC   GL127591  23.480  10.585   2.286  0.1920 -0.1084  0.0124
    1DIPC   GL227592  23.346  10.279   2.377 -0.0252  0.1256  0.1430
    1DIPC   C1A27593  23.561  10.611   2.787  0.1079 -0.0120 -0.1214
    1DIPC   D2A27594  23.538  10.554   3.207 -0.3626 -0.0114 -0.0343
    1DIPC   D3A27595  23.760  10.200   3.450  0.1808  0.0870  0.1081
    1DIPC   C4A27596  24.203  10.164   3.627  0.1696  0.3295 -0.0898
    1DIPC   C1B27597  22.915  10.503   2.471 -0.2054 -0.2174  0.0427
    1DIPC   D2B27598  22.549  10.422   2.565 -0.0757  0.0823 -0.0199
    1DIPC   D3B27599  22.471  10.336   3.082 -0.1381 -0.1791  0.0291
    1DIPC   C4B27600  22.525  10.654   3.514  0.0605  0.0627  0.3325
    1DIPC   NC327601  12.624  29.376   2.533 -0.4414  0.1857 -0.2710
    1DIPC   PO427602  12.865  29.248   2.964  0.2541 -0.1931 -0.0483
    1DIPC   GL127603  12.696  29.345   3.382 -0.0595 -0.2854  0.1816
    1DIPC   GL227604  12.494  29.626   3.605 -0.2638  0.0072  0.0562
    1DIPC   C1A27605  12.863  29.385   3.846 -0.0785 -0.1467  0.1360
    1DIPC   D2A27606  12.990  28.979   4.155 -0.2520 -0.0683 -0.0245
    1DIPC   D3A27607  12.961  29.151   4.549  0.0937  0.0030  0.0856
    1DIPC   C4A27608  12.754  28.823   4.846  0.3449 -0.1673  0.1622
    1DIPC   C1B27609  12.498  29.785   3.960  0.2034 -0.1621 -0.0953
    1DIPC   D2B27610  12.734  29.841   4.361 -0.0893 -0.2994  0.0110
    1DIPC   D3B27611  12.610  29.478   4.483 -0.2111 -0.2545 -0.1238
    1DIPC   C4B27612  12.609  29.298   4.938 -0.1317  0.2831 -0.1433
    1DIPC   NC327613   8.301  23.378   2.403 -0.0910 -0.0232 -0.1479
    1DIPC   PO427614   8.362  22.977   2.243 -0.3262 -0.4271  0.4056
    1DIPC   GL127615   8.155  22.956   2.654  0.3537  0.3415 -0.0602
    1DIPC   GL227616   8.269  23.223   2.864  0.3018  0.2121  0.1214
    1DIPC   C1A27617   8.073  22.884   3.143 -0.0465  0.2866  0.2312
    1DIPC   D2A27618   7.906  23.125   3.498 -0.0079  0.2114  0.1103
    1DIPC   D3A27619   8.163  23.222   3.849  0.1697  0.0087 -0.1039
    1DIPC   C4A27620   8.400  23.572   3.695  0.1337  0.0990  0.0960
    1DIPC   C1B27621   8.410  23.196   3.314  0.1678 -0.0317 -0.2284
    1DIPC   D2B27622   8.595  23.095   3.805 -0.0949 -0.2757  0.0780
    1DIPC   D3B27623   8.783  22.640   3.935 -0.2039 -0.0953 -0.1932
    1DIPC   C4B27624   8.697  22.171   3.979  0.1606  0.2371  0.1262
    1DIPC   NC327625  20.900   8.429   2.222  0.2630  0.0926 -0.0396
    1DIPC   PO427626  21.350   8.413   2.470 -0.1261 -0.0356  0.1778
    1DIPC   GL127627  21.415   8.412   2.909 -0.0057  0.2417  0.1927
    1DIPC   GL227628  21.251   8.363   3.141  0.2777 -0.0232 -0.2049
    1DIPC   C1A27629  21.805   8.140   3.170  0.1687 -0.0465  0.1101
    1DIPC   D2A27630  21.845   7.993   3.540 -0.3884  0.0001 -0.3673
    1DIPC   D3A27631  22.233   8.267   3.542  0.3225 -0.1841  0.0874
    1DIPC   C4A27632  22.339   8.403   3.994 -0.1373 -0.0444  0.2130
    1DIPC   C1B27633  21.422   8.299   3.551  0.0317  0.0141  0.4702
    1DIPC   D2B27634  21.364   8.461   4.008  0.1544  0.1623 -0.1529
    1DIPC   D3B27635  21.494   8.836   3.728 -0.0126 -0.2443 -0.0407
    1DIPC   C4B27636  21.459   9.202   3.800  0.3812  0.0946 -0.1174
    1DIPC   NC327637  13.797  12.611   3.214  0.1108 -0.1695 -0.1614
    1DIPC   PO427638  14.089  12.549   3.367  0.1180  0.2835 -0.1840
    1DIPC   GL127639  13.858  12.372   3.664  0.1911 -0.2129 -0.1366
    1DIPC   GL227640  13.703  12.681   3.747 -0.2749  0.1397  0.2106
    1DIPC   C1A27641  13.937  12.127   4.036 -0.0528 -0.2428  0.2017
    1DIPC   D2A27642  13.866  12.263   4.490  0.0702 -0.2193 -0.2333
    1DIPC   D3A27643  14.273  12.216   4.477 -0.2041 -0.1302  0.3443
    1DIPC   C4A27644  14.409  11.735   4.610  0.2683  0.0004  0.0545
    1DIPC   C1B27645  13.639  12.959   4.090  0.0439  0.0471  0.0326
    1DIPC   D2B27646  13.723  12.771   4.490 -0.0296  0.2091  0.0983
    1DIPC   D3B27647  14.032  12.678   4.746 -0.2102  0.1080  0.0070
    1DIPC   C4B27648  14.088  12.552   5.141 -0.2123 -0.1569 -0.0301
    1DIPC   NC327649   5.278   0.228   3.599  0.3200  0.0712  0.2670
    1DIPC   PO427650   5.604  30.165   3.735  0.0113 -0.0829  0.2448
    1DIPC   GL127651   5.294  30.311   4.048  0.4699  0.0766 -0.0554
    1DIPC   GL227652   5.005   0.195   4.059  0.2407 -0.0134  0.1235
    1DIPC   C1A27653   5.176   0.031   4.484 -0.2854 -0.4398  0.1795
    1DIPC   D2A27654   4.998  30.344   4.836 -0.2737 -0.2139 -0.0663
    1DIPC   D3A27655   4.771   0.088   5.176 -0.0183 -0.1928  0.1558
    1DIPC   C4A27656   4.618  30.118   5.388  0.1529 -0.1267  0.3140
    1DIPC   C1B27657   5.178   0.513   4.444  0.0419  0.0418 -0.0903
    1DIPC   D2B27658   5.237   0.619   4.851  0.3633 -0.0575  0.1121
    1DIPC   D3B27659   4.790   0.618   5.103 -0.1135  0.0345 -0.1833
    1DIPC   C4B27660   4.402   0.530   5.170 -0.1446  0.0230 -0.2916
    1DIPC   NC327661  16.709   1.064   2.760 -0.1282 -0.1054  0.1365
    1DIPC   PO427662  16.480   0.732   2.982  0.0298  0.1914  0.3096
    1DIPC   GL127663  16.647   0.814   3.384 -0.1456 -0.0994 -0.3280
    1DIPC   GL227664  16.535   1.027   3.524  0.1456  0.0678  0.3309
    1DIPC   C1A27665  16.859   0.783   3.847 -0.1570  0.3878 -0.0688
    1DIPC   D2A27666  16.952   0.653   4.280 -0.0031  0.3837 -0.3666
    1DIPC   D3A27667  16.578   0.960   4.372 -0.1017  0.4092  0.3247
    1DIPC   C4A27668  16.656   1.170   4.086  0.3901 -0.1594 -0.5445
    1DIPC   C1B27669  16.653   1.393   3.600 -0.1293  0.1975 -0.0059
    1DIPC   D2B27670  16.843   1.750   3.903  0.1490 -0.1032  0.2574
    1DIPC   D3B27671  16.790   1.600   4.284 -0.0157  0.1390 -0.1182
    1DIPC   C4B27672  17.039   1.229   4.432 -0.1579  0.5144 -0.0555
    1DIPC   NC327673  23.132  13.889   2.309 -0.0144  0.2680  0.0708
    1DIPC   PO427674  23.431  14.250   2.454  0.1637 -0.1737  0.2117
    1DIPC   GL127675  23.358  13.977   2.727  0.1132  0.2255  0.0080
    1DIPC   GL227676  23.333  13.638   2.813  0.2829 -0.2476 -0.2012
    1DIPC   C1A27677  22.998  13.921   3.062 -0.1306  0.3026  0.1565
    1DIPC   D2A27678  22.874  13.967   3.478 -0.1533  0.1311 -0.0179
    1DIPC   D3A27679  22.441  13.907   3.556  0.0626 -0.0187 -0.0848
    1DIPC   C4A27680  22.386  13.712   3.992  0.1768  0.0828  0.3764
    1DIPC   C1B27681  23.536  13.449   3.145 -0.3007  0.1593 -0.1884
    1DIPC   D2B27682  23.666  13.074   3.337  0.1095 -0.1259 -0.1582
    1DIPC   D3B27683  23.613  13.284   3.587  0.1552  0.1781  0.0725
    1DIPC   C4B27684  23.717  13.703   3.539 -0.2090  0.3707 -0.1443
    1DIPC   NC327685  10.465  13.163   2.773 -0.0117  0.0547 -0.1397
    1DIPC   PO427686  10.718  13.004   3.074 -0.0017  0.0992 -0.3991
    1DIPC   GL127687  10.757  12.758   3.466  0.2998 -0.0438  0.0473
    1DIPC   GL227688  11.040  12.923   3.505  0.0887 -0.0930  0.2019
    1DIPC   C1A27689  10.720  12.771   3.879 -0.2303  0.0567 -0.1346
    1DIPC   D2A27690  10.991  12.563   4.258  0.1910  0.3616  0.2031
    1DIPC   D3A27691  11.392  12.589   4.462 -0.2167  0.1246  0.0146
    1DIPC   C4A27692  11.426  12.326   4.683  0.0930 -0.2460  0.2532
    1DIPC   C1B27693  11.074  13.272   3.812  0.2570 -0.1360 -0.3006
    1DIPC   D2B27694  11.173  13.638   4.015  0.0916 -0.1521 -0.1305
    1DIPC   D3B27695  10.871  13.459   4.299 -0.3259  0.0866  0.0407
    1DIPC   C4B27696  10.839  13.550   4.739  0.0349 -0.0382 -0.0440
    1DIPC   NC327697  10.431  19.022   2.320  0.0622  0.1726 -0.3475
    1DIPC   PO427698  10.025  19.029   2.441 -0.2576  0.3283 -0.3086
    1DIPC   GL127699   9.956  18.850   2.860  0.0986  0.1970 -0.0585
    1DIPC   GL227700  10.312  18.826   3.081 -0.0661 -0.0735 -0.1277
    1DIPC   C1A27701   9.903  18.764   3.296  0.3818  0.2341  0.1097
    1DIPC   D2A27702   9.975  18.654   3.645 -0.0916  0.0100  0.1531
    1DIPC   D3A27703   9.826  18.937   3.889 -0.0249  0.1631 -0.1902
    1DIPC   C4A27704   9.992  19.306   3.832 -0.0399  0.1637  0.2720
    1DIPC   C1B27705  10.319  18.481   3.336 -0.0002 -0.2987 -0.0525
    1DIPC   D2B27706  10.415  18.382   3.780  0.2815 -0.3222  0.1896
    1DIPC   D3B27707  10.675  18.589   3.599 -0.2792  0.0076 -0.3317
    1DIPC   C4B27708  10.774  18.828   3.233 -0.1765 -0.0799 -0.0499
    1DIPC   NC327709   8.284  19.698   2.332 -0.1904  0.0137 -0.0228
    1DIPC   PO427710   8.693  19.989   2.361  0.0723  0.3013  0.0561
    1DIPC   GL127711   8.838  20.037   2.859  0.3498 -0.2641 -0.0121
    1DIPC   GL227712   8.935  19.658   2.947 -0.0882 -0.1419  0.0224
    1DIPC   C1A27713   8.673  19.872   3.289  0.0924  0.0372  0.1949
    1DIPC   D2A27714   8.397  19.868   3.737  0.1238 -0.0937 -0.1994
    1DIPC   D3A27715   8.282  19.991   4.133 -0.0347  0.1354 -0.2241
    1DIPC   C4A27716   7.873  19.835   4.279 -0.0055 -0.0161 -0.1121
    1DIPC   C1B27717   8.643  19.389   3.105 -0.3560 -0.3372  0.0306
    1DIPC   D2B27718   8.662  18.915   3.045  0.0903  0.2839  0.0351
    1DIPC   D3B27719   8.460  18.854   3.432  0.4845 -0.1720  0.3833
    1DIPC   C4B27720   8.735  18.972   3.761  0.5361  0.1525  0.0881
    1DIPC   NC327721  17.089  30.251   2.941 -0.0196  0.0206 -0.0495
    1DIPC   PO427722  17.316  30.137   3.276 -0.1991 -0.2281 -0.4097
    1DIPC   GL127723  17.206  29.940   3.632  0.0739  0.1880 -0.0102
    1DIPC   GL227724  16.926  29.574   3.616  0.0239 -0.1546 -0.1631
    1DIPC   C1A27725  17.232  30.200   3.950 -0.0711  0.1710  0.1662
    1DIPC   D2A27726  17.253  30.192   4.301 -0.2434  0.4234 -0.0059
    1DIPC   D3A27727  17.161  29.903   4.641  0.1687 -0.0604  0.2405
    1DIPC   C4A27728  17.416  29.872   5.015 -0.0642  0.4424  0.1561
    1DIPC   C1B27729  17.027  29.757   4.007 -0.0720 -0.1390  0.2538
    1DIPC   D2B27730  17.139  29.509   4.368  0.1051 -0.0754  0.0460
    1DIPC   D3B27731  17.573  29.628   4.428  0.1894 -0.1849  0.0235
    1DIPC   C4B27732  17.906  29.394   4.278  0.1389 -0.2722  0.0626
    1DIPC   NC327733  22.065   1.125   2.954  0.2615  0.0460  0.0373
    1DIPC   PO427734  22.172   1.404   3.280  0.4767 -0.1038 -0.0570
    1DIPC   GL127735  21.998   1.250   3.646  0.2899  0.2661 -0.1654
    1DIPC   GL227736  21.921   1.570   3.764 -0.0127  0.0738  0.1608
    1DIPC   C1A27737  22.055   1.167   4.088 -0.0586 -0.1573 -0.1014
    1DIPC   D2A27738  22.004   1.354   4.456  0.1547  0.0730  0.0294
    1DIPC   D3A27739  21.883   1.629   4.752  0.3347 -0.2334 -0.0924
    1DIPC   C4A27740  21.482   1.916   4.853  0.0674 -0.1766 -0.0161
    1DIPC   C1B27741  21.918   1.800   4.149  0.1630 -0.2231 -0.5633
    1DIPC   D2B27742  21.545   1.811   4.308  0.1351  0.0248 -0.2922
    1DIPC   D3B27743  21.861   2.098   4.566 -0.3020 -0.1983  0.1105
    1DIPC   C4B27744  22.270   1.901   4.628 -0.1950  0.1950 -0.3100
    1DIPC   NC327745   1.401   1.279   3.081 -0.0103  0.3344 -0.0804
    1DIPC   PO427746   1.099   1.371   3.436  0.0422 -0.1575  0.1602
    1DIPC   GL127747   0.999   1.287   3.931 -0.0850 -0.2966  0.1724
    1DIPC   GL227748   1.169   1.501   4.056  0.1883 -0.2519  0.1926
    1DIPC   C1A27749   0.807   0.889   4.021 -0.2361 -0.4267  0.0402
    1DIPC   D2A27750   0.655   0.419   4.124 -0.0895  0.0319 -0.4915
    1DIPC   D3A27751   0.882   0.269   4.404  0.2343  0.0873  0.0754
    1DIPC   C4A27752   1.033   0.451   4.733 -0.2064 -0.2794 -0.1848
    1DIPC   C1B27753   1.108   1.305   4.485  0.1473 -0.2662 -0.3606
    1DIPC   D2B27754   1.173   0.983   4.759 -0.1793  0.0346 -0.0827
    1DIPC   D3B27755   1.160   1.359   5.005  0.1980  0.2271 -0.4332
    1DIPC   C4B27756   0.855   1.406   5.339  0.0445  0.0825  0.0415
    1DIPC   NC327757  21.779  28.067   3.242 -0.0504  0.2460  0.0642
    1DIPC   PO427758  21.485  28.414   3.110  0.1653  0.0597 -0.1060
    1DIPC   GL127759  21.515  28.373   3.537  0.1572 -0.0958 -0.2721
    1DIPC   GL227760  21.669  28.053   3.739  0.1540 -0.0208  0.1464
    1DIPC   C1A27761  21.386  28.426   3.853 -0.0945 -0.0220  0.4297
    1DIPC   D2A27762  21.391  28.564   4.278 -0.2976  0.0506 -0.2097
    1DIPC   D3A27763  21.342  28.795   4.568 -0.1690 -0.0424  0.3369
    1DIPC   C4A27764  21.637  28.629   4.834  0.1466  0.0143 -0.2278
    1DIPC   C1B27765  21.578  27.596   4.009  0.0610 -0.1289 -0.1584
    1DIPC   D2B27766  21.562  27.313   4.399 -0.0615 -0.2978 -0.2828
    1DIPC   D3B27767  21.799  27.299   4.718 -0.3442  0.2007 -0.1586
    1DIPC   C4B27768  22.107  27.142   5.113 -0.1221  0.0790  0.0859
    1DIPC   NC327769  11.785   9.166   3.053  0.0146  0.1516  0.1976
    1DIPC   PO427770  11.443   8.883   3.237  0.0676 -0.0367 -0.2023
    1DIPC   GL127771  11.372   8.664   3.596  0.0429  0.1470  0.0400
    1DIPC   GL227772  11.201   8.667   3.814 -0.0928  0.1879  0.2230
    1DIPC   C1A27773  11.365   8.176   3.687 -0.1182  0.0751 -0.2991
    1DIPC   D2A27774  11.420   7.778   3.835 -0.1068 -0.1834 -0.1634
    1DIPC   D3A27775  11.352   7.588   4.208  0.0449  0.3003 -0.1312
    1DIPC   C4A27776  11.240   7.742   4.592 -0.0745 -0.0240  0.0618
    1DIPC   C1B27777  10.952   8.525   4.184 -0.0213 -0.0913 -0.0806
    1DIPC   D2B27778  10.708   8.341   4.332 -0.2427 -0.2386 -0.0651
    1DIPC   D3B27779  10.662   7.998   4.411 -0.0546 -0.2531 -0.0538
    1DIPC   C4B27780  10.754   7.892   4.840  0.0883  0.0555 -0.1078
    1DIPC   NC327781   8.546  16.723   2.066 -0.0497 -0.1383  0.1704
    1DIPC   PO427782   8.810  16.810   2.391  0.1517 -0.0775  0.3724
    1DIPC   GL127783   8.788  16.657   2.713  0.1745 -0.3149 -0.0816
    1DIPC   GL227784   8.875  16.850   3.014 -0.0235  0.2437 -0.1659
    1DIPC   C1A27785   8.791  16.324   2.915  0.0763  0.1133 -0.0449
    1DIPC   D2A27786   9.137  16.307   3.302  0.0313  0.1848 -0.0997
    1DIPC   D3A27787   8.703  16.270   3.404  0.2083 -0.1008  0.0722
    1DIPC   C4A27788   8.460  15.894   3.257 -0.0335 -0.2088 -0.1932
    1DIPC   C1B27789   8.846  16.766   3.509 -0.3562  0.3923 -0.3914
    1DIPC   D2B27790   8.912  16.517   3.885  0.0036 -0.3269 -0.2301
    1DIPC   D3B27791   8.632  16.601   4.249  0.3794 -0.0531  0.1415
    1DIPC   C4B27792   8.371  16.380   4.453 -0.0198  0.1312 -0.1430
    1DIPC   NC327793   8.972  27.257   2.852  0.0978  0.1184 -0.1172
    1DIPC   PO427794   9.179  26.851   2.827 -0.2903  0.2196 -0.3272
    1DIPC   GL127795   9.183  26.873   3.211 -0.0156 -0.2659  0.2623
    1DIPC   GL227796   9.411  27.059   3.425  0.0101  0.1258  0.1071
    1DIPC   C1A27797   8.795  26.953   3.508  0.2790  0.1978  0.0632
    1DIPC   D2A27798   8.352  26.841   3.617 -0.1447  0.2054  0.1694
    1DIPC   D3A27799   8.511  26.534   3.836  0.1692  0.0586 -0.1548
    1DIPC   C4A27800   8.806  26.769   4.011  0.1115  0.0760  0.1225
    1DIPC   C1B27801   9.208  27.043   3.851  0.0561 -0.5089 -0.0625
    1DIPC   D2B27802   9.259  27.094   4.358 -0.3137 -0.0664  0.2016
    1DIPC   D3B27803   8.863  26.882   4.549  0.2338 -0.2835  0.2280
    1DIPC   C4B27804   8.531  27.012   4.864 -0.2176  0.3196  0.1288
    1DIPC   NC327805  22.778   8.616   2.117  0.0829  0.0152  0.3348
    1DIPC   PO427806  22.397   8.622   2.361  0.0625  0.4108  0.3193
    1DIPC   GL127807  22.256   8.861   2.682 -0.1930  0.0933  0.0101
    1DIPC   GL227808  22.396   8.942   2.934 -0.3393 -0.1952  0.0413
    1DIPC   C1A27809  21.943   9.135   2.956  0.0144 -0.0861  0.2127
    1DIPC   D2A27810  21.740   9.357   3.274  0.1479  0.2598 -0.2302
    1DIPC   D3A27811  21.458   9.756   3.219 -0.0931  0.4024 -0.0328
    1DIPC   C4A27812  21.615  10.029   3.604  0.3074  0.0304  0.2677
    1DIPC   C1B27813  22.302   8.755   3.377 -0.1925 -0.1034  0.1918
    1DIPC   D2B27814  21.974   8.732   3.638 -0.0721  0.3147 -0.1623
    1DIPC   D3B27815  21.851   8.313   3.903  0.0101 -0.1887  0.0930
    1DIPC   C4B27816  21.804   8.147   4.376 -0.1672 -0.0593 -0.3739
    1DIPC   NC327817  21.026   5.913   2.798 -0.3154 -0.0068  0.1173
    1DIPC   PO427818  21.127   6.391   2.799  0.1058  0.0689  0.0491
    1DIPC   GL127819  20.777   6.383   3.201  0.0990  0.1108 -0.0315
    1DIPC   GL227820  20.836   6.078   3.270  0.3062 -0.0983 -0.0522
    1DIPC   C1A27821  20.931   6.489   3.575 -0.1316 -0.1014 -0.0301
    1DIPC   D2A27822  20.786   6.772   3.883 -0.1709 -0.0606  0.0553
    1DIPC   D3A27823  20.447   7.100   3.732  0.2425 -0.0584  0.1369
    1DIPC   C4A27824  20.644   7.422   3.529  0.2934  0.0822  0.0406
    1DIPC   C1B27825  20.581   6.057   3.596 -0.2926  0.0946 -0.2129
    1DIPC   D2B27826  20.644   6.270   4.024 -0.0241  0.1495  0.0818
    1DIPC   D3B27827  20.986   6.259   4.012 -0.1858  0.2065  0.2397
    1DIPC   C4B27828  21.110   6.488   4.356 -0.2709 -0.5830  0.2393
    1DIPC   NC327829   5.839   2.373   3.145 -0.0064 -0.1102 -0.1355
    1DIPC   PO427830   5.966   2.372   3.522 -0.1344  0.1360  0.1388
    1DIPC   GL127831   5.773   2.280   4.021 -0.1763 -0.3882 -0.0556
    1DIPC   GL227832   5.959   1.992   4.145  0.0894  0.2564 -0.0443
    1DIPC   C1A27833   5.979   2.566   4.373  0.0984  0.0007  0.1861
    1DIPC   D2A27834   5.912   2.599   4.831 -0.1576 -0.1178  0.0523
    1DIPC   D3A27835   6.137   2.481   5.183  0.2232 -0.1676 -0.0791
    1DIPC   C4A27836   6.380   2.806   5.471  0.0969 -0.2706  0.0539
    1DIPC   C1B27837   6.146   2.042   4.530  0.2901  0.1519 -0.0647
    1DIPC   D2B27838   6.176   2.093   4.839  0.1235  0.1736  0.0190
    1DIPC   D3B27839   5.867   2.040   5.214 -0.1704  0.0585 -0.0382
    1DIPC   C4B27840   5.492   2.090   4.976 -0.0476 -0.5192  0.1414
    1DIPC   NC327841  16.021  15.403   3.057  0.1990  0.0055  0.0716
    1DIPC   PO427842  15.659  15.436   3.230 -0.4266  0.0629  0.1155
    1DIPC   GL127843  15.660  15.607   3.573 -0.1963 -0.3406  0.4578
    1DIPC   GL227844  15.827  15.398   3.897  0.1401  0.1099  0.0111
    1DIPC   C1A27845  15.823  15.975   3.835  0.2133  0.2278 -0.0932
    1DIPC   D2A27846  15.565  16.177   4.099 -0.2329 -0.2836 -0.2080
    1DIPC   D3A27847  15.287  16.628   4.251  0.0676  0.0596  0.1215
    1DIPC   C4A27848  15.425  16.900   3.973 -0.1510  0.1712  0.3222
    1DIPC   C1B27849  15.723  15.728   4.277 -0.2543 -0.1713 -0.1262
    1DIPC   D2B27850  15.930  15.727   4.668  0.0695  0.1635 -0.1816
    1DIPC   D3B27851  15.632  15.540   4.859 -0.1713  0.3242 -0.0271
    1DIPC   C4B27852  15.353  15.528   4.489  0.0387  0.5873 -0.0201
    1DIPC   NC327853  23.709  23.969   2.757 -0.0005 -0.1999 -0.1001
    1DIPC   PO427854  23.332  24.168   2.673  0.1214  0.0661  0.0826
    1DIPC   GL127855  23.260  23.987   3.014 -0.1739  0.0672 -0.1007
    1DIPC   GL227856  23.601  23.906   3.210  0.2011 -0.1551 -0.3375
    1DIPC   C1A27857  23.134  23.866   3.414 -0.1963 -0.0959 -0.0022
    1DIPC   D2A27858  22.988  23.596   3.779  0.0976  0.2276 -0.0964
    1DIPC   D3A27859  22.790  23.640   4.144 -0.1178  0.1024 -0.2071
    1DIPC   C4A27860  22.703  23.208   4.321 -0.0428 -0.0245  0.0632
    1DIPC   C1B27861  23.803  23.583   3.461 -0.1153  0.0006 -0.1123
    1DIPC   D2B27862  24.054  23.563   3.781  0.1798 -0.0896  0.1960
    1DIPC   D3B27863  23.985  23.783   4.073  0.1172 -0.1730  0.0084
    1DIPC   C4B27864  24.255  23.566   4.425 -0.2396 -0.1076  0.0288
    1DIPC   NC327865  18.668  13.293   2.140  0.0867  0.2070  0.0241
    1DIPC   PO427866  18.907  13.412   2.462  0.0117 -0.2613  0.1975
    1DIPC   GL127867  18.895  13.405   2.914 -0.2079  0.3066 -0.3329
    1DIPC   GL227868  18.652  13.542   3.188  0.2205  0.2065 -0.0343
    1DIPC   C1A27869  19.206  13.391   3.228  0.0720 -0.0758 -0.0188
    1DIPC   D2A27870  19.315  13.179   3.660  0.0225 -0.2407 -0.0518
    1DIPC   D3A27871  19.269  13.170   4.131  0.0907 -0.0068 -0.3835
    1DIPC   C4A27872  19.455  13.027   4.519  0.1391  0.3731  0.1490
    1DIPC   C1B27873  18.671  13.283   3.654  0.4180 -0.0072  0.2592
    1DIPC   D2B27874  18.804  13.419   4.122 -0.0394 -0.2130 -0.0338
    1DIPC   D3B27875  18.510  13.523   4.312 -0.2259  0.1022  0.0764
    1DIPC   C4B27876  18.515  13.717   4.692  0.0412  0.0804  0.0194
    1DIPC   NC327877  12.485  21.383   2.199 -0.1773 -0.0801 -0.0118
    1DIPC   PO427878  12.834  21.410   2.430 -0.3741 -0.1812  0.3373
    1DIPC   GL127879  12.834  21.657   2.771 -0.2114 -0.0428 -0.0051
    1DIPC   GL227880  13.231  21.574   2.698 -0.0273 -0.2976 -0.0267
    1DIPC   C1A27881  12.703  21.638   3.119 -0.1480  0.2373 -0.1151
    1DIPC   D2A27882  12.318  21.565   3.401 -0.0050 -0.1823  0.0674
    1DIPC   D3A27883  12.713  21.812   3.586 -0.1785  0.2006 -0.0255
    1DIPC   C4A27884  13.129  21.740   3.364 -0.0024 -0.0291 -0.1840
    1DIPC   C1B27885  13.476  21.515   3.117  0.1465 -0.1644 -0.2847
    1DIPC   D2B27886  13.417  21.302   3.431  0.0014 -0.2202 -0.2272
    1DIPC   D3B27887  13.070  21.429   3.729 -0.1279  0.0653  0.0159
    1DIPC   C4B27888  13.043  21.798   4.132  0.1678 -0.1210 -0.3354
    1DIPC   NC327889  11.632  16.925   2.979 -0.0956  0.1869  0.2110
    1DIPC   PO427890  11.811  16.452   2.800 -0.2112  0.0865 -0.2211
    1DIPC   GL127891  11.657  16.430   3.321 -0.0184  0.1353 -0.2122
    1DIPC   GL227892  11.402  16.534   3.375 -0.0081  0.2192 -0.3062
    1DIPC   C1A27893  11.694  16.385   3.775  0.0475 -0.0711  0.1532
    1DIPC   D2A27894  11.524  16.225   4.111 -0.1903  0.0074  0.1582
    1DIPC   D3A27895  11.757  16.170   4.374 -0.1780 -0.1875 -0.0458
    1DIPC   C4A27896  12.044  16.362   4.631  0.1897 -0.2392  0.0690
    1DIPC   C1B27897  11.219  16.210   3.682 -0.2529  0.0452  0.0685
    1DIPC   D2B27898  11.067  16.016   3.921 -0.2148 -0.2041 -0.1125
    1DIPC   D3B27899  11.039  16.231   4.329  0.2068  0.3608  0.1183
    1DIPC   C4B27900  11.260  16.022   4.736 -0.1381 -0.3037 -0.4125
    1DIPC   NC327901  19.490  13.875   2.355  0.2076 -0.0385 -0.1956
    1DIPC   PO427902  19.746  14.249   2.562 -0.2922 -0.0612  0.0549
    1DIPC   GL127903  20.032  14.514   2.800 -0.0046 -0.2014 -0.0960
    1DIPC   GL227904  20.154  14.816   3.075 -0.1122 -0.2651  0.0338
    1DIPC   C1A27905  19.986  14.343   3.198 -0.2930 -0.0437 -0.0447
    1DIPC   D2A27906  19.777  14.421   3.622  0.3099  0.1910 -0.1797
    1DIPC   D3A27907  19.678  14.512   4.080  0.0481 -0.2884  0.0541
    1DIPC   C4A27908  19.389  14.116   4.267 -0.0403  0.0998 -0.2944
    1DIPC   C1B27909  20.184  14.833   3.567 -0.1633 -0.0094  0.2492
    1DIPC   D2B27910  20.086  14.848   4.055 -0.1300  0.0131  0.0086
    1DIPC   D3B27911  20.454  15.041   4.233 -0.1468 -0.0645 -0.0622
    1DIPC   C4B27912  20.435  15.490   4.527  0.0782 -0.3148  0.0612
    1DIPC   NC327913  19.597  20.696   2.481 -0.1234  0.0285  0.0348
    1DIPC   PO427914  19.478  20.384   2.174  0.1862 -0.4104  0.1686
    1DIPC   GL127915  19.455  20.149   2.527 -0.2379  0.2150  0.1691
    1DIPC   GL227916  19.369  20.352   2.762 -0.3254  0.0180  0.2948
    1DIPC   C1A27917  19.636  19.925   2.963 -0.1549 -0.1478  0.0010
    1DIPC   D2A27918  19.469  19.966   3.423  0.1190  0.1529  0.2432
    1DIPC   D3A27919  19.711  19.710   3.704 -0.4497  0.1079 -0.0781
    1DIPC   C4A27920  19.918  19.785   4.157  0.1049  0.2125 -0.2856
    1DIPC   C1B27921  19.283  20.369   3.249  0.0310  0.1795  0.0589
    1DIPC   D2B27922  19.189  20.389   3.629 -0.3961 -0.2308 -0.3121
    1DIPC   D3B27923  18.756  20.396   3.817  0.4155 -0.0861  0.1182
    1DIPC   C4B27924  18.538  20.664   3.967  0.1971  0.3615 -0.2710
    1DIPC   NC327925  23.004  17.948   1.889 -0.0466  0.1326 -0.1017
    1DIPC   PO427926  22.622  18.166   1.852 -0.1895 -0.1624 -0.3804
    1DIPC   GL127927  22.780  18.187   2.268 -0.0668 -0.0947 -0.1442
    1DIPC   GL227928  22.692  18.568   2.379  0.1922  0.1035  0.0241
    1DIPC   C1A27929  22.838  18.005   2.603 -0.0731 -0.3959  0.1050
    1DIPC   D2A27930  22.624  18.054   2.944 -0.1878 -0.0987  0.0481
    1DIPC   D3A27931  22.805  18.265   3.256 -0.0156 -0.0842 -0.0941
    1DIPC   C4A27932  23.258  18.267   3.328 -0.2278 -0.1525 -0.0741
    1DIPC   C1B27933  22.700  18.496   2.800  0.2534 -0.1326 -0.3955
    1DIPC   D2B27934  22.627  18.830   3.125 -0.1144  0.1262 -0.0655
    1DIPC   D3B27935  22.467  18.654   3.467  0.2466 -0.0978 -0.0448
    1DIPC   C4B27936  22.216  18.979   3.683  0.2223  0.2276  0.0037
    1DIPC   NC327937  29.675   2.873   3.129  0.2882  0.4102  0.1793
    1DIPC   PO427938  29.294   2.750   3.195 -0.0575  0.3329 -0.2583
    1DIPC   GL127939  29.263   2.858   3.554  0.0265 -0.0958 -0.1034
    1DIPC   GL227940  29.585   3.046   3.681 -0.1736  0.0910 -0.1796
    1DIPC   C1A27941  29.220   2.893   3.978  0.2957 -0.2955 -0.2573
    1DIPC   D2A27942  29.196   2.666   4.359  0.2507  0.1893 -0.2072
    1DIPC   D3A27943  29.530   2.757   4.717  0.1074 -0.0736 -0.0245
    1DIPC   C4A27944  29.544   3.065   5.061  0.0792 -0.2448 -0.1711
    1DIPC   C1B27945  29.800   3.088   4.033 -0.2207 -0.0135  0.3392
    1DIPC   D2B27946  30.047   3.400   4.227 -0.2130 -0.3274  0.1462
    1DIPC   D3B27947   0.107   3.434   4.385  0.2059 -0.2210 -0.1888
    1DIPC   C4B27948   0.396   3.723   4.224 -0.1272 -0.1529  0.0288
    1DIPC   NC327949  14.476   5.467   2.477 -0.1276 -0.0141 -0.1506
    1DIPC   PO427950  14.081   5.440   2.509 -0.1586  0.1987 -0.0786
    1DIPC   GL127951  14.180   5.690   2.885  0.1353 -0.0738  0.1064
    1DIPC   GL227952  14.538   5.868   2.803  0.3597  0.2706  0.2093
    1DIPC   C1A27953  14.110   5.596   3.251  0.1388 -0.3850 -0.3400
    1DIPC   D2A27954  14.141   5.457   3.573 -0.0555  0.1839  0.0465
    1DIPC   D3A27955  14.206   5.434   3.982 -0.1338  0.2332  0.1070
    1DIPC   C4A27956  13.906   5.362   4.303  0.1418  0.0256 -0.0032
    1DIPC   C1B27957  14.700   6.025   3.054 -0.0421 -0.1464  0.2485
    1DIPC   D2B27958  14.810   6.458   3.410 -0.2159  0.2562 -0.0324
    1DIPC   D3B27959  14.775   6.247   3.729  0.4072 -0.0152 -0.1606
    1DIPC   C4B27960  14.509   5.889   3.568  0.0170 -0.3333 -0.0800
    1DIPC   NC327961  10.573   0.228   3.437 -0.0831  0.1604  0.0527
    1DIPC   PO427962  10.969   0.037   3.470 -0.0765 -0.1256 -0.1406
    1DIPC   GL127963  11.246   0.223   3.668  0.0170 -0.0936 -0.2302
    1DIPC   GL227964  11.300   0.196   4.003 -0.0727  0.0935  0.0456
    1DIPC   C1A27965  11.613   0.395   3.699  0.1645  0.1815  0.0433
    1DIPC   D2A27966  12.011   0.369   3.893  0.0734  0.1258 -0.3683
    1DIPC   D3A27967  11.910   0.031   4.179  0.0722  0.1607  0.0130
    1DIPC   C4A27968  11.647  30.289   3.985  0.1940  0.1002 -0.3018
    1DIPC   C1B27969  10.998   0.346   4.265 -0.0995 -0.1722 -0.2205
    1DIPC   D2B27970  10.820   0.505   4.670 -0.0864 -0.1419  0.0546
    1DIPC   D3B27971  10.347   0.628   4.628  0.3266  0.2192  0.4132
    1DIPC   C4B27972  10.276   0.455   4.125 -0.2608  0.0415  0.1211
    1DIPC   NC327973  20.323  20.612   2.069 -0.2229 -0.2578  0.2310
    1DIPC   PO427974  20.084  20.941   2.427  0.0231  0.3369 -0.0563
    1DIPC   GL127975  19.913  20.784   2.830 -0.3285 -0.3853 -0.1016
    1DIPC   GL227976  19.830  20.437   2.894 -0.0184 -0.1640 -0.2240
    1DIPC   C1A27977  19.836  20.935   3.250 -0.0437 -0.3045  0.2453
    1DIPC   D2A27978  19.735  21.344   3.316 -0.1999 -0.0792 -0.2654
    1DIPC   D3A27979  19.836  21.279   3.680  0.0090  0.1121 -0.0307
    1DIPC   C4A27980  20.194  21.016   3.705  0.3146  0.3692 -0.1512
    1DIPC   C1B27981  19.756  20.392   3.383 -0.4350  0.0049 -0.3155
    1DIPC   D2B27982  19.720  20.623   3.755 -0.1601 -0.2367  0.0845
    1DIPC   D3B27983  19.399  20.926   3.508  0.0236 -0.3432  0.1020
    1DIPC   C4B27984  18.911  20.876   3.372  0.0495 -0.0610  0.2446
    1DIPC   NC327985  21.549  10.617   2.182  0.0347  0.1182  0.2019
    1DIPC   PO427986  21.206  10.845   2.320  0.0886  0.2343  0.3279
    1DIPC   GL127987  21.117  10.935   2.811 -0.3874 -0.0208 -0.3063
    1DIPC   GL227988  21.340  11.276   3.027  0.1184  0.0585  0.0353
    1DIPC   C1A27989  20.841  11.195   3.149 -0.0926 -0.1740 -0.0218
    1DIPC   D2A27990  20.632  11.429   3.288  0.1462  0.1578 -0.2571
    1DIPC   D3A27991  20.831  11.550   3.660  0.0144 -0.0716  0.3910
    1DIPC   C4A27992  21.117  11.475   3.989 -0.0638  0.1535 -0.0925
    1DIPC   C1B27993  21.250  11.383   3.420  0.1076 -0.1848 -0.0460
    1DIPC   D2B27994  21.211  11.084   3.749  0.3974 -0.0069  0.3126
    1DIPC   D3B27995  21.191  10.661   3.901 -0.0368 -0.1463  0.2849
    1DIPC   C4B27996  21.621  10.458   3.847 -0.0079 -0.0849  0.0742
    1DIPC   NC327997  17.091   3.350   2.427 -0.0097 -0.5081 -0.3073
    1DIPC   PO427998  17.298   3.142   2.784  0.0943  0.0285  0.0977
    1DIPC   GL127999  17.286   3.235   3.261 -0.2735 -0.0901 -0.0879
    1DIPC   GL228000  17.120   3.398   3.338 -0.0206 -0.0794  0.1414
    1DIPC   C1A28001  17.262   2.951   3.599 -0.1515  0.4088 -0.0965
    1DIPC   D2A28002  17.228   3.075   4.041 -0.0416  0.2078 -0.0553
    1DIPC   D3A28003  17.140   2.711   4.227 -0.0019  0.2460 -0.1461
    1DIPC   C4A28004  16.888   2.515   4.677  0.0729  0.0445 -0.3718
    1DIPC   C1B28005  17.297   3.474   3.729 -0.1166  0.0431  0.0977
    1DIPC   D2B28006  17.450   3.788   3.939 -0.0339 -0.0835  0.0362
    1DIPC   D3B28007  17.087   3.618   4.212 -0.2479  0.0953  0.1605
    1DIPC   C4B28008  17.078   3.358   4.552 -0.1098 -0.0600  0.0081
    1DIPC   NC328009  29.046  29.905   3.453 -0.3086  0.3747  0.0423
    1DIPC   PO428010  29.026  29.460   3.598 -0.0973 -0.1447 -0.3407
    1DIPC   GL128011  28.981  29.670   4.013 -0.0082 -0.3159  0.1467
    1DIPC   GL228012  28.660  29.500   4.251  0.1243  0.0922 -0.0644
    1DIPC   C1A28013  29.149  29.586   4.403 -0.0950  0.3023 -0.0709
    1DIPC   D2A28014  29.032  29.630   4.812 -0.0354 -0.2357 -0.1077
    1DIPC   D3A28015  28.632  29.601   4.746  0.2880 -0.1508 -0.0277
    1DIPC   C4A28016  28.332  29.494   4.943  0.0120  0.3821 -0.2221
    1DIPC   C1B28017  28.878  29.209   4.558  0.0732 -0.0229 -0.1210
    1DIPC   D2B28018  29.071  29.005   4.901 -0.5497  0.2261  0.0870
    1DIPC   D3B28019  28.993  28.922   5.272 -0.0064  0.0386  0.2290
    1DIPC   C4B28020  28.970  29.274   5.598 -0.1635 -0.2004  0.0506
    1DIPC   NC328021  17.463  28.478   3.015 -0.1729 -0.0076 -0.0364
    1DIPC   PO428022  17.683  28.166   2.840 -0.4163  0.0204  0.0323
    1DIPC   GL128023  17.585  27.908   3.138 -0.2013  0.0537  0.3398
    1DIPC   GL228024  17.443  27.632   3.290 -0.0697  0.3239 -0.1739
    1DIPC   C1A28025  17.762  27.962   3.627 -0.0894  0.2011 -0.1595
    1DIPC   D2A28026  18.093  28.276   3.720 -0.4080 -0.2551 -0.0870
    1DIPC   D3A28027  18.145  27.875   3.980  0.0912 -0.1086 -0.2852
    1DIPC   C4A28028  18.028  27.521   3.676 -0.1233  0.1477  0.0918
    1DIPC   C1B28029  17.437  27.615   3.792 -0.0314  0.0812  0.0547
    1DIPC   D2B28030  17.632  27.529   4.226  0.0536 -0.1018  0.5026
    1DIPC   D3B28031  17.624  27.929   4.240  0.1527 -0.2240  0.0949
    1DIPC   C4B28032  17.723  28.077   4.568 -0.0361  0.2485 -0.1712
    1DIPC   NC328033  17.207  29.624   3.123  0.0417 -0.0599 -0.2652
    1DIPC   PO428034  17.220  29.203   3.405 -0.1935  0.4835  0.1290
    1DIPC   GL128035  17.306  29.271   3.795  0.0746  0.1408  0.1527
    1DIPC   GL228036  17.681  29.285   3.806 -0.5251  0.0354  0.0754
    1DIPC   C1A28037  17.383  29.032   4.095 -0.1476 -0.1902  0.1239
    1DIPC   D2A28038  17.460  29.044   4.491 -0.0283 -0.0867 -0.1785
    1DIPC   D3A28039  17.038  28.800   4.427 -0.0692 -0.3434  0.1800
    1DIPC   C4A28040  17.074  28.609   4.839 -0.1187 -0.2975 -0.3163
    1DIPC   C1B28041  17.533  29.677   3.940  0.0173  0.1944 -0.0981
    1DIPC   D2B28042  17.750  30.090   4.146  0.1446 -0.0976 -0.0146
    1DIPC   D3B28043  17.770  30.149   4.596 -0.0518  0.1808  0.1299
    1DIPC   C4B28044  18.005  30.145   4.996  0.0874  0.5385 -0.2688
    1DIPC   NC328045  18.920   3.195   2.662  0.2791  0.2848 -0.0873
    1DIPC   PO428046  18.892   3.581   2.528 -0.4173  0.0219 -0.0680
    1DIPC   GL128047  18.710   3.590   2.943  0.0254 -0.0770 -0.0405
    1DIPC   GL228048  18.939   3.333   3.180 -0.0232  0.2438 -0.3951
    1DIPC   C1A28049  18.627   3.743   3.380 -0.1790  0.3041 -0.1185
    1DIPC   D2A28050  18.657   3.744   3.924  0.0655  0.2525 -0.0904
    1DIPC   D3A28051  18.412   4.065   4.067  0.1618 -0.1740  0.3659
    1DIPC   C4A28052  18.051   4.005   4.392 -0.4459  0.0365 -0.0060
    1DIPC   C1B28053  18.524   3.267   3.407 -0.1672  0.1608  0.0190
    1DIPC   D2B28054  18.445   3.225   3.934 -0.2313  0.1458  0.0571
    1DIPC   D3B28055  18.075   3.546   3.794  0.1818 -0.1036 -0.0209
    1DIPC   C4B28056  17.854   3.660   4.136  0.2594  0.0318 -0.2764
    1DIPC   NC328057  17.192  22.455   2.831 -0.0604 -0.0516 -0.1393
    1DIPC   PO428058  17.505  22.723   2.808 -0.1734  0.1963 -0.1201
    1DIPC   GL128059  17.658  22.523   3.142 -0.0568 -0.1939  0.0010
    1DIPC   GL228060  17.571  22.205   3.096  0.0314  0.0526 -0.3301
    1DIPC   C1A28061  17.699  22.600   3.595  0.3390  0.3000  0.0815
    1DIPC   D2A28062  17.942  22.689   3.960 -0.0957  0.1980 -0.1387
    1DIPC   D3A28063  17.778  23.179   4.183 -0.2977  0.0695  0.5306
    1DIPC   C4A28064  18.048  23.398   4.333 -0.0170  0.1045  0.1425
    1DIPC   C1B28065  17.414  22.156   3.486  0.1040 -0.0682 -0.2651
    1DIPC   D2B28066  17.120  21.957   3.729  0.0931  0.2683  0.3074
    1DIPC   D3B28067  17.463  21.889   3.926 -0.2666  0.0123  0.1438
    1DIPC   C4B28068  17.791  22.197   3.926  0.1003  0.0896  0.0686
    1DIPC   NC328069   6.850  27.147   2.670  0.2344  0.0635 -0.1258
    1DIPC   PO428070   7.265  26.925   2.855 -0.1339  0.0974  0.0801
    1DIPC   GL128071   7.231  26.568   3.167  0.0032  0.1015  0.2631
    1DIPC   GL228072   6.943  26.623   3.319  0.1001 -0.0213 -0.1072
    1DIPC   C1A28073   7.349  26.620   3.654 -0.0876  0.2207 -0.0299
    1DIPC   D2A28074   7.572  26.407   4.023 -0.1003  0.3610 -0.1276
    1DIPC   D3A28075   7.481  26.397   4.399  0.1630  0.1646 -0.0512
    1DIPC   C4A28076   7.756  26.528   4.748  0.2428  0.2746 -0.0840
    1DIPC   C1B28077   6.891  26.551   3.768  0.1578  0.1383  0.0644
    1DIPC   D2B28078   6.909  26.369   4.193 -0.1106 -0.0397 -0.0976
    1DIPC   D3B28079   6.545  26.330   4.136  0.0840  0.2697  0.1385
    1DIPC   C4B28080   6.352  26.284   4.393 -0.0990 -0.0064  0.0747
    1DIPC   NC328081   7.542   3.784   3.499  0.2154  0.0029  0.0937
    1DIPC   PO428082   7.737   4.127   3.510  0.1884  0.3798  0.3239
    1DIPC   GL128083   7.714   4.325   3.867  0.0042  0.1050 -0.0671
    1DIPC   GL228084   7.852   4.606   3.869 -0.0808  0.2861 -0.3277
    1DIPC   C1A28085   7.654   4.216   4.235  0.0107 -0.1498 -0.0704
    1DIPC   D2A28086   7.695   4.255   4.635 -0.3433 -0.0411 -0.3079
    1DIPC   D3A28087   8.130   4.074   4.678  0.0096 -0.2954 -0.0070
    1DIPC   C4A28088   8.503   4.286   4.587  0.0002  0.1757 -0.0228
    1DIPC   C1B28089   8.092   4.337   4.138  0.0459  0.1570 -0.0906
    1DIPC   D2B28090   8.345   4.487   4.074  0.0629 -0.0578  0.0424
    1DIPC   D3B28091   8.348   4.719   4.501  0.1333 -0.2465 -0.0953
    1DIPC   C4B28092   8.740   4.966   4.579  0.1246  0.0631 -0.1406
    1DIPC   NC328093  16.434  13.672   3.526  0.0742 -0.2607  0.0918
    1DIPC   PO428094  16.803  14.026   3.424  0.1155 -0.2765 -0.4607
    1DIPC   GL128095  17.093  14.186   3.735 -0.0752 -0.0071 -0.0648
    1DIPC   GL228096  17.451  14.229   3.493  0.1850 -0.0788  0.0802
    1DIPC   C1A28097  17.069  14.351   4.119  0.1007  0.1377 -0.3113
    1DIPC   D2A28098  16.878  14.349   4.539  0.0550 -0.1212 -0.0440
    1DIPC   D3A28099  17.107  14.270   4.848  0.0654  0.0478  0.3870
    1DIPC   C4A28100  17.192  14.586   5.208 -0.2068  0.0233  0.2123
    1DIPC   C1B28101  17.542  14.269   3.848  0.0982 -0.1060 -0.0983
    1DIPC   D2B28102  17.560  14.165   4.259  0.1637  0.0428 -0.1171
    1DIPC   D3B28103  17.492  14.481   4.524  0.1953 -0.1175  0.1338
    1DIPC   C4B28104  17.601  14.607   4.953  0.1030 -0.0146  0.0358
    1DIPC   NC328105  20.170   4.186   2.847 -0.1739  0.1545  0.1514
    1DIPC   PO428106  20.020   4.591   2.947 -0.0446  0.0328 -0.0098
    1DIPC   GL128107  20.075   4.770   3.339  0.1077  0.2331 -0.0810
    1DIPC   GL228108  20.023   5.019   3.479  0.1602 -0.0643 -0.0679
    1DIPC   C1A28109  20.142   4.664   3.829 -0.1906 -0.0810  0.0486
    1DIPC   D2A28110  20.146   4.806   4.265 -0.1741  0.0766 -0.3712
    1DIPC   D3A28111  20.549   4.907   4.404 -0.0394  0.2278 -0.0277
    1DIPC   C4A28112  20.670   4.991   4.762  0.2251 -0.0741  0.2032
    1DIPC   C1B28113  19.631   4.953   3.507 -0.3063  0.1846 -0.2314
    1DIPC   D2B28114  19.238   4.753   3.537  0.2097 -0.1697 -0.1626
    1DIPC   D3B28115  19.215   4.465   3.789  0.0308 -0.1497  0.0778
    1DIPC   C4B28116  18.775   4.435   4.014 -0.1615  0.0393  0.2009
    1DIPC   NC328117   8.587  17.232   2.224  0.2145  0.1898  0.0850
    1DIPC   PO428118   8.205  17.103   2.139  0.1311  0.0572 -0.1121
    1DIPC   GL128119   8.090  17.243   2.569  0.0394 -0.2622  0.0781
    1DIPC   GL228120   8.158  17.529   2.747 -0.1037  0.1535 -0.1086
    1DIPC   C1A28121   7.937  17.024   2.886  0.0841 -0.1156 -0.0705
    1DIPC   D2A28122   8.055  16.825   3.140  0.1764 -0.4111 -0.2789
    1DIPC   D3A28123   7.918  16.743   3.611  0.1487  0.3781 -0.2193
    1DIPC   C4A28124   7.726  17.179   3.927  0.2046  0.1295 -0.0721
    1DIPC   C1B28125   8.089  17.439   3.230  0.0261  0.0534 -0.3024
    1DIPC   D2B28126   8.136  17.280   3.544  0.0379 -0.0492  0.3058
    1DIPC   D3B28127   8.439  17.060   3.183  0.0900  0.0558  0.0987
    1DIPC   C4B28128   8.466  16.596   3.146  0.3575  0.1526  0.0053
    1DIPC   NC328129  20.238  28.905   3.039 -0.1776  0.1663  0.1481
    1DIPC   PO428130  20.021  28.559   3.001 -0.0952  0.0766 -0.0661
    1DIPC   GL128131  20.022  28.550   3.515 -0.2565 -0.0904 -0.1055
    1DIPC   GL228132  19.936  28.746   3.639  0.0023  0.0228  0.1889
    1DIPC   C1A28133  20.184  28.418   4.004  0.3395  0.2203  0.1925
    1DIPC   D2A28134  20.129  28.650   4.324  0.2898  0.2970 -0.0713
    1DIPC   D3A28135  19.790  28.472   4.507  0.2825 -0.0243 -0.0267
    1DIPC   C4A28136  19.450  28.801   4.669 -0.1229  0.2231  0.0601
    1DIPC   C1B28137  19.653  28.733   3.995 -0.1759 -0.0711  0.0041
    1DIPC   D2B28138  19.330  28.941   4.143 -0.3149 -0.1678  0.0933
    1DIPC   D3B28139  19.064  28.866   3.748  0.0078 -0.2863  0.2692
    1DIPC   C4B28140  18.621  28.867   3.811 -0.2401 -0.0719 -0.5603
    1DIPC   NC328141   9.402   4.633   3.013  0.2501 -0.2953  0.1557
    1DIPC   PO428142   9.781   4.388   3.046  0.2819 -0.1725  0.3517
    1DIPC   GL128143   9.573   4.314   3.406 -0.0889  0.3273  0.1453
    1DIPC   GL228144   9.235   4.293   3.424 -0.0208  0.2185  0.0539
    1DIPC   C1A28145   9.596   4.188   3.889 -0.2445  0.2174 -0.2803
    1DIPC   D2A28146   9.993   4.175   4.064 -0.0669  0.0604  0.0635
    1DIPC   D3A28147  10.329   4.086   3.717 -0.0863  0.2178  0.1485
    1DIPC   C4A28148  10.262   3.617   3.482 -0.3023  0.3589 -0.4713
    1DIPC   C1B28149   9.138   4.361   3.808  0.0885  0.1258  0.2108
    1DIPC   D2B28150   8.853   4.257   4.185 -0.0975  0.1909 -0.1508
    1DIPC   D3B28151   8.829   3.852   4.273 -0.0413 -0.0051  0.3433
    1DIPC   C4B28152   8.983   3.517   4.172 -0.2660 -0.0786 -0.0282
    1DIPC   NC328153  19.230  16.049   2.766 -0.0001 -0.0096  0.0753
    1DIPC   PO428154  18.836  16.059   2.711  0.0049  0.0426  0.0845
    1DIPC   GL128155  18.810  16.128   3.123  0.0084  0.1631  0.0010
    1DIPC   GL228156  19.076  16.281   3.289 -0.3889 -0.2114 -0.2183
    1DIPC   C1A28157  18.782  15.979   3.557  0.0374  0.2321  0.2188
    1DIPC   D2A28158  18.648  16.175   3.916  0.0866 -0.2461  0.2079
    1DIPC   D3A28159  18.426  16.354   4.154 -0.1183  0.0617 -0.3027
    1DIPC   C4A28160  18.388  16.120   4.485  0.0787 -0.2006 -0.3981
    1DIPC   C1B28161  18.977  16.554   3.573 -0.0080  0.1310  0.0567
    1DIPC   D2B28162  18.802  16.713   3.971  0.1514 -0.1998  0.1619
    1DIPC   D3B28163  19.118  17.000   3.695 -0.0020  0.3854  0.1797
    1DIPC   C4B28164  19.512  17.095   3.870 -0.3798  0.0702  0.1219
    1DIPC   NC328165  21.731  27.083   3.017  0.0399 -0.1094  0.0553
    1DIPC   PO428166  21.467  27.539   2.972  0.0787  0.1337 -0.4321
    1DIPC   GL128167  21.662  27.584   3.377  0.1441 -0.0230  0.2121
    1DIPC   GL228168  21.613  27.389   3.529  0.0390  0.0634 -0.0719
    1DIPC   C1A28169  22.016  27.602   3.757  0.1527 -0.1689 -0.2676
    1DIPC   D2A28170  22.042  27.440   4.237  0.0215  0.1229  0.1882
    1DIPC   D3A28171  21.835  27.749   4.560  0.2674 -0.0058  0.2643
    1DIPC   C4A28172  21.525  27.697   4.904  0.0134 -0.1467 -0.0211
    1DIPC   C1B28173  21.757  27.138   3.897  0.3490  0.0308  0.2264
    1DIPC   D2B28174  21.893  26.923   4.153 -0.1205  0.0801 -0.1706
    1DIPC   D3B28175  21.681  26.683   4.270 -0.2225  0.2001 -0.0606
    1DIPC   C4B28176  21.724  26.764   4.665 -0.0465 -0.1239 -0.2689
    1DIPC   NC328177   5.613  29.229   3.131  0.1547  0.0767  0.1792
    1DIPC   PO428178   5.531  29.543   3.347  0.0661  0.0324 -0.2324
    1DIPC   GL128179   5.514  29.526   3.861  0.1405 -0.0509 -0.0694
    1DIPC   GL228180   5.516  29.781   4.019  0.0871 -0.1365 -0.1678
    1DIPC   C1A28181   5.874  29.640   4.304  0.0086 -0.1018 -0.0324
    1DIPC   D2A28182   6.288  29.787   4.324 -0.0724 -0.1873  0.1636
    1DIPC   D3A28183   5.992  29.992   4.636 -0.1932 -0.0008  0.0674
    1DIPC   C4A28184   6.026   0.015   4.685 -0.1862 -0.0163 -0.2353
    1DIPC   C1B28185   5.505  29.948   4.457 -0.2179  0.2823 -0.1564
    1DIPC   D2B28186   5.535  30.175   4.847 -0.0097  0.3202 -0.0980
    1DIPC   D3B28187   5.157  30.145   5.226  0.2664  0.0111  0.0188
    1DIPC   C4B28188   5.089  29.796   5.370 -0.0331 -0.3340  0.0253
    1DIPC   NC328189  10.349  22.192   2.126  0.3558  0.3263 -0.2876
    1DIPC   PO428190   9.958  22.115   2.334 -0.1962  0.1347 -0.1243
    1DIPC   GL128191   9.983  21.728   2.603 -0.2359 -0.0679 -0.1044
    1DIPC   GL228192   9.586  21.666   2.549 -0.2035 -0.1435 -0.2132
    1DIPC   C1A28193  10.163  21.799   2.931  0.3229 -0.0154  0.2617
    1DIPC   D2A28194  10.369  21.879   3.288  0.0262 -0.0736 -0.1201
    1DIPC   D3A28195  10.568  22.138   2.989 -0.0302  0.0377  0.1821
    1DIPC   C4A28196  10.899  22.375   3.141 -0.3709 -0.0611 -0.0426
    1DIPC   C1B28197   9.605  21.629   2.964 -0.0834 -0.0377 -0.2327
    1DIPC   D2B28198   9.374  21.624   3.304  0.0796 -0.1215 -0.1092
    1DIPC   D3B28199   9.439  22.006   3.448 -0.0071 -0.4535 -0.1283
    1DIPC   C4B28200   9.666  22.308   3.888  0.3232  0.1387 -0.2624
    1DIPC   NC328201  26.966   4.597   3.454  0.0280 -0.0870  0.2479
    1DIPC   PO428202  26.879   4.570   3.841 -0.1287 -0.2021  0.1189
    1DIPC   GL128203  26.775   4.587   4.200 -0.1700 -0.1567  0.1197
    1DIPC   GL228204  26.969   4.558   4.430  0.5242  0.3091 -0.2279
    1DIPC   C1A28205  26.560   4.822   4.535  0.1377 -0.1044  0.1117
    1DIPC   D2A28206  26.792   5.131   4.779 -0.1556 -0.0083 -0.0232
    1DIPC   D3A28207  26.886   5.066   5.279 -0.0473 -0.1719  0.3224
    1DIPC   C4A28208  26.973   4.770   5.570  0.2249  0.1261 -0.1204
    1DIPC   C1B28209  27.153   4.675   4.682  0.1234 -0.2086  0.0665
    1DIPC   D2B28210  27.279   5.022   4.846  0.3086  0.1845  0.0447
    1DIPC   D3B28211  27.604   4.954   5.169  0.0343  0.0693 -0.2743
    1DIPC   C4B28212  27.945   4.726   5.007 -0.0290  0.0914 -0.0464
    1DIPC   NC328213   6.382  24.648   2.499  0.0683  0.0729 -0.0427
    1DIPC   PO428214   6.647  24.929   2.701 -0.2804 -0.1751 -0.2952
    1DIPC   GL128215   6.568  25.068   3.130  0.2885 -0.1004  0.1217
    1DIPC   GL228216   6.155  25.080   3.350 -0.0094  0.1660  0.0928
    1DIPC   C1A28217   6.588  24.881   3.497  0.0276 -0.1145 -0.1166
    1DIPC   D2A28218   6.464  24.545   3.710 -0.1650  0.2122  0.1119
    1DIPC   D3A28219   6.511  24.182   4.092 -0.2271  0.0318 -0.2395
    1DIPC   C4A28220   6.495  23.749   4.102 -0.0450 -0.4584  0.0948
    1DIPC   C1B28221   6.040  24.860   3.662  0.2392 -0.0441 -0.0052
    1DIPC   D2B28222   5.775  24.913   3.967 -0.1095  0.0125  0.2963
    1DIPC   D3B28223   5.746  24.496   4.109 -0.3076  0.2150  0.2868
    1DIPC   C4B28224   6.125  24.391   4.378 -0.1278 -0.4708  0.3348
    1DIPC   NC328225  20.362  17.070   2.223  0.2790  0.1615 -0.3576
    1DIPC   PO428226  19.917  17.388   2.223  0.2504  0.0968  0.0320
    1DIPC   GL128227  19.716  17.443   2.578 -0.2610  0.0537  0.0031
    1DIPC   GL228228  19.926  17.802   2.733 -0.3953 -0.1074  0.1487
    1DIPC   C1A28229  19.422  17.606   2.933  0.2869 -0.0168 -0.1020
    1DIPC   D2A28230  19.117  17.847   3.004  0.1638  0.0806 -0.2421
    1DIPC   D3A28231  18.773  17.608   3.099  0.0316 -0.0337  0.4572
    1DIPC   C4A28232  18.424  17.725   3.392 -0.1009  0.1159  0.3190
    1DIPC   C1B28233  20.006  17.538   3.076 -0.0995  0.0180  0.3461
    1DIPC   D2B28234  20.072  17.115   3.419  0.0948 -0.3266 -0.1001
    1DIPC   D3B28235  20.085  16.889   3.817  0.0790 -0.2033  0.3055
    1DIPC   C4B28236  20.378  17.103   4.113 -0.3365  0.1672  0.0696
    1DIPC   NC328237  20.426  15.417   2.670 -0.2665  0.1730 -0.1644
    1DIPC   PO428238  19.969  15.183   2.738 -0.2267 -0.3390 -0.0933
    1DIPC   GL128239  19.824  15.186   3.111  0.4298 -0.2236 -0.2757
    1DIPC   GL228240  19.638  14.835   3.222  0.2200  0.3885 -0.0313
    1DIPC   C1A28241  19.940  15.268   3.517  0.0834 -0.1518  0.0930
    1DIPC   D2A28242  20.303  15.329   3.798 -0.4625 -0.2998  0.1228
    1DIPC   D3A28243  20.188  15.655   4.075  0.0146 -0.1521 -0.1052
    1DIPC   C4A28244  20.010  15.739   4.483 -0.1410 -0.2787  0.2690
    1DIPC   C1B28245  19.447  14.841   3.514 -0.1278  0.1664  0.2244
    1DIPC   D2B28246  19.667  14.922   3.821 -0.1257  0.1590 -0.3378
    1DIPC   D3B28247  19.632  15.047   4.250  0.1391  0.0598  0.1305
    1DIPC   C4B28248  19.282  15.342   4.315 -0.1048 -0.1494  0.0966
    1DIPC   NC328249   5.241  29.868   3.625  0.0216 -0.0104 -0.0665
    1DIPC   PO428250   4.899  30.201   3.682  0.0160 -0.1821  0.0558
    1DIPC   GL128251   4.837  30.004   4.018 -0.0167 -0.2802  0.2981
    1DIPC   GL228252   5.055  29.796   4.061 -0.0041 -0.0029  0.5578
    1DIPC   C1A28253   4.833  29.934   4.466  0.0674 -0.1524 -0.2531
    1DIPC   D2A28254   5.016  29.887   4.839 -0.1696 -0.0012  0.2058
    1DIPC   D3A28255   4.615  29.924   4.906 -0.0289  0.1095  0.1229
    1DIPC   C4A28256   4.470   0.017   4.825 -0.1130  0.0336  0.0083
    1DIPC   C1B28257   5.266  29.501   4.440 -0.1362 -0.0369  0.0617
    1DIPC   D2B28258   5.425  29.639   4.851  0.1857 -0.0499 -0.0597
    1DIPC   D3B28259   5.597  29.802   5.255 -0.2382  0.0765  0.0030
    1DIPC   C4B28260   5.553  30.035   5.517  0.0046 -0.2402 -0.2254
    1DIPC   NC328261  20.048   0.614   2.983  0.0082 -0.1280  0.1552
    1DIPC   PO428262  20.326   0.944   2.761 -0.1270 -0.0675 -0.3161
    1DIPC   GL128263  20.554   1.121   3.193 -0.1594  0.0358  0.0546
    1DIPC   GL228264  20.754   0.938   3.313  0.0395  0.1242 -0.1880
    1DIPC   C1A28265  20.378   1.011   3.569 -0.3977 -0.0487  0.0130
    1DIPC   D2A28266  20.124   0.914   3.868 -0.1789 -0.3907  0.0070
    1DIPC   D3A28267  19.867   1.003   4.123 -0.1703 -0.2924  0.0493
    1DIPC   C4A28268  19.753   1.017   4.551  0.3080 -0.1444  0.0851
    1DIPC   C1B28269  20.912   0.880   3.703 -0.2090  0.4994 -0.3776
    1DIPC   D2B28270  21.191   0.896   4.089 -0.0010 -0.0166  0.1005
    1DIPC   D3B28271  21.168   0.835   4.489 -0.1191  0.0766 -0.4065
    1DIPC   C4B28272  21.192   0.518   4.626 -0.1287  0.0368 -0.2125
    1DIPC   NC328273  11.970  30.177   2.957 -0.2956  0.1228 -0.1045
    1DIPC   PO428274  11.688  29.937   3.216 -0.2402  0.2644 -0.0374
    1DIPC   GL128275  11.849  29.910   3.662 -0.1413  0.1277 -0.1162
    1DIPC   GL228276  11.636  29.679   3.828 -0.1364 -0.0848  0.0311
    1DIPC   C1A28277  12.072  30.018   3.851  0.1790  0.0666 -0.1009
    1DIPC   D2A28278  12.426  30.264   3.884  0.1226  0.1015 -0.3133
    1DIPC   D3A28279  12.396  30.195   4.231  0.2084  0.0429  0.0868
    1DIPC   C4A28280  12.755  30.319   4.309 -0.1819  0.3670 -0.1992
    1DIPC   C1B28281  11.689  29.838   4.247 -0.1587 -0.1155  0.3624
    1DIPC   D2B28282  11.500  30.199   4.475 -0.1919 -0.0907  0.2483
    1DIPC   D3B28283  11.480   0.244   4.485  0.0422  0.2130 -0.2351
    1DIPC   C4B28284  11.628   0.534   4.241 -0.2361  0.3474 -0.2643
    1DIPC   NC328285  26.704   1.898   3.350  0.1495  0.1185 -0.0026
    1DIPC   PO428286  26.672   1.816   3.806 -0.1327  0.2951 -0.0444
    1DIPC   GL128287  26.947   1.810   4.144 -0.0481  0.1368  0.1534
    1DIPC   GL228288  26.667   1.705   4.328  0.1596  0.3109 -0.1733
    1DIPC   C1A28289  27.013   2.127   4.490 -0.2638 -0.1361 -0.0232
    1DIPC   D2A28290  27.309   2.382   4.688  0.3694 -0.2048  0.2340
    1DIPC   D3A28291  27.451   2.171   5.094  0.2427 -0.0365  0.1428
    1DIPC   C4A28292  27.374   2.411   5.467  0.0080  0.2317  0.0022
    1DIPC   C1B28293  26.876   1.700   4.665  0.1008  0.2972  0.1274
    1DIPC   D2B28294  26.987   1.978   4.959 -0.0635 -0.3402  0.0307
    1DIPC   D3B28295  26.981   1.503   5.147 -0.2916 -0.2009  0.1195
    1DIPC   C4B28296  27.222   1.188   4.881  0.2121 -0.1933 -0.0478
    1DIPC   NC328297  11.305  11.136   3.125  0.1907  0.0543  0.2202
    1DIPC   PO428298  11.154  10.726   3.270  0.2614 -0.1820  0.2598
    1DIPC   GL128299  11.024  10.735   3.626 -0.0420  0.2282  0.2176
    1DIPC   GL228300  11.234  10.793   3.851 -0.1343  0.4338  0.3051
    1DIPC   C1A28301  10.829  10.569   4.043 -0.0334 -0.0279  0.1631
    1DIPC   D2A28302  10.809  10.445   4.449  0.6029  0.1314  0.2490
    1DIPC   D3A28303  10.440  10.098   4.607 -0.0346 -0.0612 -0.0997
    1DIPC   C4A28304  10.405  10.051   5.037  0.1257  0.1939  0.1096
    1DIPC   C1B28305  11.341  10.667   4.278 -0.0205 -0.2999  0.2334
    1DIPC   D2B28306  11.599  10.437   4.575  0.0131 -0.1107 -0.2031
    1DIPC   D3B28307  11.677  10.802   4.885 -0.0760 -0.0883 -0.0820
    1DIPC   C4B28308  11.737  10.992   5.214 -0.0568 -0.2389 -0.0064
    1DIPC   NC328309  19.304  26.061   2.378 -0.1390 -0.2853  0.0345
    1DIPC   PO428310  19.385  26.257   2.809 -0.1034  0.1678 -0.1090
    1DIPC   GL128311  19.308  26.088   3.145  0.0416 -0.0352 -0.1587
    1DIPC   GL228312  19.423  26.288   3.307  0.0206 -0.1737  0.2407
    1DIPC   C1A28313  19.215  25.814   3.377 -0.2765  0.1960  0.1216
    1DIPC   D2A28314  18.899  25.603   3.497 -0.0007  0.0380 -0.1786
    1DIPC   D3A28315  18.380  25.737   3.497  0.3046  0.1048 -0.1438
    1DIPC   C4A28316  18.037  25.532   3.663  0.1708 -0.0775 -0.0540
    1DIPC   C1B28317  19.118  26.310   3.644 -0.2160  0.0505  0.1636
    1DIPC   D2B28318  18.848  26.422   4.071 -0.0873 -0.1076 -0.0103
    1DIPC   D3B28319  18.931  26.036   4.230 -0.2078 -0.2080  0.1064
    1DIPC   C4B28320  19.151  25.762   3.904 -0.0173 -0.0536 -0.0470
    1DIPC   NC328321   3.403   8.215   2.541 -0.1008 -0.0599 -0.0520
    1DIPC   PO428322   3.734   8.551   2.467 -0.0655 -0.0480 -0.0749
    1DIPC   GL128323   3.800   8.715   2.866  0.3778 -0.0226  0.0441
    1DIPC   GL228324   4.118   8.941   2.914  0.1419  0.0479 -0.0285
    1DIPC   C1A28325   3.607   8.623   3.246 -0.0405  0.1507  0.1704
    1DIPC   D2A28326   3.302   8.400   3.456 -0.1906  0.2882  0.1567
    1DIPC   D3A28327   3.598   8.637   3.796  0.0487 -0.1728  0.0737
    1DIPC   C4A28328   3.690   8.999   3.728 -0.4735  0.1528  0.1247
    1DIPC   C1B28329   3.920   9.146   3.267 -0.0139 -0.1250 -0.0045
    1DIPC   D2B28330   3.761   9.502   3.527  0.1378 -0.0752  0.1567
    1DIPC   D3B28331   3.517   9.464   3.098 -0.1777  0.0885 -0.2770
    1DIPC   C4B28332   3.729   9.276   2.816  0.5556  0.0537 -0.0262
    1DIPC   NC328333  20.601  13.188   2.657 -0.2352  0.6745 -0.2479
    1DIPC   PO428334  21.082  13.143   2.561 -0.1050  0.4223  0.1147
    1DIPC   GL128335  20.994  12.960   2.930  0.2022 -0.3548 -0.1810
    1DIPC   GL228336  21.144  12.673   3.108  0.2676  0.3823  0.1234
    1DIPC   C1A28337  20.713  12.980   3.271  0.1878  0.1352 -0.0723
    1DIPC   D2A28338  20.359  13.021   3.494 -0.2119  0.2225 -0.0326
    1DIPC   D3A28339  20.529  13.398   3.686  0.0223 -0.0381  0.2207
    1DIPC   C4A28340  20.545  13.731   3.328 -0.0929  0.0944 -0.1334
    1DIPC   C1B28341  21.230  12.818   3.513 -0.0782  0.1391 -0.1510
    1DIPC   D2B28342  20.851  13.017   3.742  0.1804 -0.0615 -0.0236
    1DIPC   D3B28343  20.686  13.118   4.117 -0.0064  0.1148  0.1370
    1DIPC   C4B28344  20.226  13.083   4.058  0.0185  0.1556 -0.0222
    1DIPC   NC328345  21.943  10.340   1.981 -0.1311  0.2914 -0.4527
    1DIPC   PO428346  22.174  10.027   1.919  0.2164 -0.0810  0.1196
    1DIPC   GL128347  22.129  10.105   2.438  0.0315  0.1394  0.0167
    1DIPC   GL228348  22.161   9.890   2.530  0.1651  0.1192 -0.0217
    1DIPC   C1A28349  22.026  10.338   2.778  0.2390  0.2097 -0.1231
    1DIPC   D2A28350  21.972  10.712   3.015  0.2370  0.0294  0.1637
    1DIPC   D3A28351  22.073  10.446   3.340  0.1856 -0.1948 -0.1483
    1DIPC   C4A28352  22.027  10.719   3.698 -0.2372 -0.1823  0.3828
    1DIPC   C1B28353  22.348   9.846   2.862  0.0128  0.2574 -0.1817
    1DIPC   D2B28354  22.553   9.833   3.151  0.2907 -0.2914  0.0704
    1DIPC   D3B28355  22.436   9.649   3.623 -0.1652  0.0652  0.1930
    1DIPC   C4B28356  22.584   9.768   3.981 -0.5611 -0.1464 -0.4756
    1DIPC   NC328357  21.220  21.384   2.040 -0.1739  0.2985 -0.0551
    1DIPC   PO428358  21.109  20.922   2.177  0.0172 -0.1019  0.1290
    1DIPC   GL128359  21.089  20.894   2.634 -0.1287 -0.2498 -0.0045
    1DIPC   GL228360  21.446  20.938   2.772  0.1988  0.0002  0.1014
    1DIPC   C1A28361  21.092  21.170   3.113  0.1103 -0.2109 -0.1326
    1DIPC   D2A28362  20.875  21.399   3.394 -0.2636  0.0385  0.1115
    1DIPC   D3A28363  20.702  21.324   3.868 -0.0349 -0.1354  0.0712
    1DIPC   C4A28364  20.647  20.954   3.938  0.0111  0.0884  0.0026
    1DIPC   C1B28365  21.504  20.799   3.211 -0.1499  0.0512 -0.0513
    1DIPC   D2B28366  21.747  20.669   3.510 -0.1567 -0.2969 -0.1423
    1DIPC   D3B28367  21.541  20.668   3.891  0.2808  0.1802 -0.1991
    1DIPC   C4B28368  21.860  20.602   4.261 -0.1197 -0.0687 -0.1607
    1DIPC   NC328369   0.049   4.930   2.446  0.2131 -0.1449  0.1252
    1DIPC   PO428370   0.404   4.956   2.772 -0.1253  0.0513 -0.2387
    1DIPC   GL128371   0.183   5.121   3.265  0.0434  0.0590  0.1792
    1DIPC   GL228372  30.242   5.111   3.457  0.0737 -0.1784  0.0659
    1DIPC   C1A28373   0.235   5.315   3.760 -0.0538  0.1651  0.1661
    1DIPC   D2A28374   0.605   5.504   4.017  0.2234 -0.3193  0.0627
    1DIPC   D3A28375   0.528   5.224   4.424  0.0281 -0.3611 -0.2025
    1DIPC   C4A28376   0.797   5.476   4.794 -0.0944 -0.1387  0.0424
    1DIPC   C1B28377  30.165   5.089   3.925  0.0628 -0.1255 -0.1259
    1DIPC   D2B28378  30.040   4.915   4.351 -0.3338 -0.0834  0.0790
    1DIPC   D3B28379  30.289   5.223   4.519  0.0827 -0.2727  0.0307
    1DIPC   C4B28380   0.159   5.462   4.249 -0.0651 -0.1630 -0.0913
    1DIPC   NC328381  21.804  14.054   2.566 -0.0882  0.2428  0.1023
    1DIPC   PO428382  21.319  14.055   2.648 -0.0157 -0.1382 -0.3295
    1DIPC   GL128383  21.419  14.044   3.066 -0.0020 -0.0079  0.0414
    1DIPC   GL228384  21.492  13.744   3.213  0.4407  0.1447  0.0866
    1DIPC   C1A28385  21.486  14.378   3.374 -0.0084  0.1335  0.2546
    1DIPC   D2A28386  21.727  14.523   3.785 -0.3031  0.1798  0.0569
    1DIPC   D3A28387  21.459  14.339   4.091 -0.0189  0.0162  0.1719
    1DIPC   C4A28388  21.323  14.505   4.377  0.1211  0.2725 -0.0338
    1DIPC   C1B28389  21.405  13.725   3.616  0.2924  0.0125  0.0050
    1DIPC   D2B28390  21.268  13.897   3.964 -0.1755 -0.0506 -0.0889
    1DIPC   D3B28391  21.559  13.648   4.247 -0.0425  0.2471  0.0981
    1DIPC   C4B28392  21.931  13.820   4.605  0.0055  0.1508  0.1043
    1DIPC   NC328393   1.986   4.289   2.701  0.1412  0.2248  0.1580
    1DIPC   PO428394   2.291   4.413   2.876 -0.2206  0.0716  0.0830
    1DIPC   GL128395   2.377   4.417   3.332  0.0515 -0.1895 -0.1747
    1DIPC   GL228396   2.170   4.304   3.586  0.0769 -0.0474  0.0668
    1DIPC   C1A28397   2.457   4.716   3.699 -0.2792 -0.1160  0.0735
    1DIPC   D2A28398   2.446   4.822   4.202  0.1192  0.1747  0.3846
    1DIPC   D3A28399   2.559   4.745   4.593  0.0640 -0.2117  0.0719
    1DIPC   C4A28400   2.832   4.887   4.997 -0.0852  0.1574  0.1080
    1DIPC   C1B28401   2.203   4.402   3.960 -0.1060 -0.0197 -0.0375
    1DIPC   D2B28402   2.392   4.341   4.383  0.0869  0.0890  0.2365
    1DIPC   D3B28403   2.163   4.387   4.797 -0.1783 -0.0068 -0.1429
    1DIPC   C4B28404   2.527   4.329   4.973 -0.0468 -0.1213 -0.0462
    1DIPC   NC328405  11.787  29.006   3.336 -0.0604 -0.0302  0.2459
    1DIPC   PO428406  11.958  29.480   3.203 -0.0307 -0.1094 -0.1532
    1DIPC   GL128407  12.044  29.413   3.624 -0.0017 -0.1115  0.2220
    1DIPC   GL228408  12.069  28.937   3.717  0.2797  0.0281 -0.0803
    1DIPC   C1A28409  12.082  29.549   4.066  0.1208 -0.1997  0.2253
    1DIPC   D2A28410  12.191  29.769   4.398  0.3875 -0.3133  0.1801
    1DIPC   D3A28411  12.003  30.119   4.572 -0.1506 -0.0540 -0.0974
    1DIPC   C4A28412  12.206  30.260   4.983  0.0412 -0.0474  0.2500
    1DIPC   C1B28413  12.196  28.733   4.040 -0.0986  0.3063 -0.0915
    1DIPC   D2B28414  12.421  28.308   4.221 -0.1795  0.1912  0.3035
    1DIPC   D3B28415  12.418  28.083   4.637 -0.0290  0.3983  0.2558
    1DIPC   C4B28416  12.913  27.920   4.788  0.1723 -0.0032 -0.1113
    1DIPC   NC328417  13.234  30.323   3.430 -0.2189  0.0881  0.2215
    1DIPC   PO428418  13.406   0.371   3.448 -0.1902 -0.1305 -0.0484
    1DIPC   GL128419  13.265   0.293   3.847  0.5132  0.1525  0.2326
    1DIPC   GL228420  13.106   0.339   4.141  0.0671 -0.1244  0.1794
    1DIPC   C1A28421  13.565   0.051   4.129 -0.0785  0.3184 -0.0469
    1DIPC   D2A28422  13.526   0.083   4.702  0.0430 -0.0046  0.3350
    1DIPC   D3A28423  13.894   0.246   4.538  0.0168 -0.3476 -0.1266
    1DIPC   C4A28424  14.303   0.225   4.309  0.1094 -0.2367  0.0696
    1DIPC   C1B28425  12.766   0.475   4.332  0.0168  0.0978  0.0503
    1DIPC   D2B28426  12.399   0.351   4.203 -0.2040  0.3984  0.2001
    1DIPC   D3B28427  12.390   0.203   4.586  0.0755  0.1285  0.0325
    1DIPC   C4B28428  11.985   0.267   4.708 -0.0438  0.1877  0.0216
    1DIPC   NC328429  21.802   3.594   3.378 -0.1234 -0.0217  0.2253
    1DIPC   PO428430  21.399   3.405   3.276  0.4023 -0.2800  0.2892
    1DIPC   GL128431  21.311   3.470   3.688  0.1474 -0.0659 -0.2604
    1DIPC   GL228432  21.138   3.227   3.735  0.2711  0.0388  0.2585
    1DIPC   C1A28433  21.407   3.571   4.118  0.1559  0.1379 -0.3355
    1DIPC   D2A28434  21.486   3.660   4.415 -0.0557  0.3847 -0.3159
    1DIPC   D3A28435  21.112   3.419   4.616  0.0508 -0.0466 -0.1347
    1DIPC   C4A28436  20.979   3.032   4.920 -0.1959 -0.0670 -0.0935
    1DIPC   C1B28437  20.878   3.468   3.961  0.0270 -0.0835  0.0951
    1DIPC   D2B28438  20.669   3.478   4.371  0.2284  0.1254  0.1498
    1DIPC   D3B28439  20.448   3.151   4.700  0.0626  0.2649 -0.0670
    1DIPC   C4B28440  20.562   3.179   5.091 -0.0325  0.0825  0.2089
    1DIPC   NC328441   6.856   4.043   2.948 -0.1641 -0.0691 -0.0982
    1DIPC   PO428442   6.922   4.420   3.310  0.4012  0.0394  0.0976
    1DIPC   GL128443   7.130   4.735   3.654 -0.0036 -0.0553  0.1642
    1DIPC   GL228444   7.350   4.677   3.892  0.0857  0.0087 -0.3425
    1DIPC   C1A28445   6.960   4.945   3.996 -0.1673 -0.2570  0.1275
    1DIPC   D2A28446   7.134   5.005   4.433  0.0360 -0.0234  0.2114
    1DIPC   D3A28447   6.948   5.057   4.850 -0.0533  0.2740  0.5989
    1DIPC   C4A28448   6.657   5.117   5.188 -0.0711 -0.1736 -0.1519
    1DIPC   C1B28449   7.418   4.650   4.311 -0.0851 -0.1279 -0.1671
    1DIPC   D2B28450   7.364   4.722   4.750  0.1237  0.0472 -0.3497
    1DIPC   D3B28451   7.289   4.317   4.993  0.1246  0.3477 -0.1621
    1DIPC   C4B28452   6.781   4.254   5.137  0.1041 -0.0407 -0.0481
    1DIPC   NC328453  18.295  21.298   2.283 -0.0978 -0.2054  0.1301
    1DIPC   PO428454  18.339  20.866   2.456 -0.3712  0.3194 -0.0639
    1DIPC   GL128455  18.169  20.773   2.876  0.1025  0.1757 -0.2659
    1DIPC   GL228456  18.463  20.782   3.119  0.2253  0.1221  0.1091
    1DIPC   C1A28457  18.036  20.591   3.305 -0.1231 -0.1950  0.2735
    1DIPC   D2A28458  18.110  20.426   3.726 -0.2921  0.1320  0.0355
    1DIPC   D3A28459  17.949  20.810   3.740  0.1613 -0.0308 -0.3088
    1DIPC   C4A28460  17.691  20.993   4.153  0.2074 -0.1227 -0.5283
    1DIPC   C1B28461  18.471  20.948   3.571  0.2334 -0.1179 -0.0612
    1DIPC   D2B28462  18.743  21.056   3.905 -0.0103 -0.1208 -0.1592
    1DIPC   D3B28463  18.667  21.477   4.192  0.0767  0.0574 -0.0307
    1DIPC   C4B28464  18.501  21.418   4.587  0.2150 -0.0129  0.2699
    1DIPC   NC328465  17.719  23.606   2.255  0.0720  0.2248 -0.0140
    1DIPC   PO428466  17.628  23.526   2.559 -0.0347  0.0438  0.2156
    1DIPC   GL128467  17.622  23.223   2.874  0.0974 -0.0085 -0.1228
    1DIPC   GL228468  17.323  23.400   3.025 -0.0834  0.2928  0.0038
    1DIPC   C1A28469  17.864  23.194   3.302  0.0543 -0.1377 -0.2169
    1DIPC   D2A28470  17.656  23.079   3.681  0.0989 -0.2144 -0.2494
    1DIPC   D3A28471  17.457  23.457   3.683  0.1173  0.2528 -0.1384
    1DIPC   C4A28472  17.063  23.362   3.994 -0.1536  0.0018 -0.3331
    1DIPC   C1B28473  17.366  23.009   3.320 -0.1210 -0.0248 -0.2534
    1DIPC   D2B28474  17.171  22.556   3.370  0.0379  0.2546  0.0182
    1DIPC   D3B28475  17.175  22.507   3.766 -0.2971  0.2265 -0.0400
    1DIPC   C4B28476  17.365  22.917   4.056  0.0655 -0.1944 -0.1122
    1DIPC   NC328477  25.192  29.526   3.354 -0.1317  0.3536 -0.1909
    1DIPC   PO428478  24.766  29.425   3.300  0.1307  0.0911 -0.0853
    1DIPC   GL128479  24.462  29.381   3.608 -0.1006 -0.1387 -0.0827
    1DIPC   GL228480  24.536  29.174   3.823 -0.1988 -0.0891 -0.0236
    1DIPC   C1A28481  24.186  29.631   3.633 -0.1767 -0.2039 -0.0530
    1DIPC   D2A28482  23.940  29.945   3.431 -0.1399  0.2605 -0.3854
    1DIPC   D3A28483  23.903  30.051   3.903  0.0656  0.0342 -0.0895
    1DIPC   C4A28484  23.827  29.704   4.141 -0.2785  0.0088 -0.0542
    1DIPC   C1B28485  24.594  29.192   4.250  0.2485 -0.1007 -0.2255
    1DIPC   D2B28486  24.592  29.414   4.652 -0.1263 -0.0036 -0.0245
    1DIPC   D3B28487  24.308  29.240   4.798 -0.0745  0.1046  0.0276
    1DIPC   C4B28488  23.989  29.495   5.050  0.2969 -0.1297  0.0961
    1DIPC   NC328489  23.378   1.296   2.798 -0.4939 -0.1140 -0.2130
    1DIPC   PO428490  23.489   1.557   3.091  0.2886  0.3884 -0.3275
    1DIPC   GL128491  23.608   1.736   3.528  0.2415  0.3566  0.4170
    1DIPC   GL228492  23.529   1.501   3.772  0.1433  0.0688  0.2135
    1DIPC   C1A28493  23.776   1.995   3.834 -0.3130  0.2382 -0.2673
    1DIPC   D2A28494  24.089   2.289   3.943  0.2188  0.0314  0.0895
    1DIPC   D3A28495  24.198   2.810   4.000 -0.0564  0.0102  0.1148
    1DIPC   C4A28496  24.279   3.205   4.141  0.2359  0.0050 -0.2936
    1DIPC   C1B28497  23.924   1.595   4.084  0.0392  0.2532 -0.0883
    1DIPC   D2B28498  24.021   1.448   4.546 -0.2988  0.0496 -0.2057
    1DIPC   D3B28499  23.956   1.336   4.996  0.1304 -0.0789  0.1844
    1DIPC   C4B28500  24.015   0.999   5.283  0.1159  0.2701 -0.1235
    1DIPC   NC328501  18.150  22.855   2.419  0.2296 -0.0183 -0.1321
    1DIPC   PO428502  18.362  22.464   2.420 -0.0263 -0.0262  0.2751
    1DIPC   GL128503  18.290  22.369   2.897 -0.2142 -0.2939  0.1744
    1DIPC   GL228504  18.530  22.223   2.959 -0.0641 -0.1770  0.3489
    1DIPC   C1A28505  18.155  22.236   3.249 -0.1692 -0.0272 -0.0386
    1DIPC   D2A28506  18.350  22.377   3.689 -0.1758 -0.0457 -0.0027
    1DIPC   D3A28507  18.203  22.168   4.156  0.2233 -0.0316 -0.3748
    1DIPC   C4A28508  18.398  21.908   4.465  0.0125  0.2238  0.1791
    1DIPC   C1B28509  18.619  21.883   3.235 -0.0810  0.1921 -0.1658
    1DIPC   D2B28510  18.409  21.824   3.694 -0.3807 -0.0503 -0.1195
    1DIPC   D3B28511  18.693  22.021   3.951  0.2354  0.1937  0.0800
    1DIPC   C4B28512  18.868  21.892   4.342  0.1181  0.1606  0.0413
    1DIPC   NC328513  19.459   0.429   2.702 -0.2496  0.3470 -0.1817
    1DIPC   PO428514  19.583   0.697   2.958 -0.0180 -0.2623  0.2219
    1DIPC   GL128515  19.619   0.781   3.368 -0.0067 -0.1152  0.3011
    1DIPC   GL228516  19.694   1.100   3.661  0.0637 -0.2166  0.1599
    1DIPC   C1A28517  19.328   0.753   3.786 -0.0854  0.1613  0.1184
    1DIPC   D2A28518  18.906   0.783   4.055  0.1146  0.2456  0.2037
    1DIPC   D3A28519  19.181   0.572   4.193 -0.1564  0.0732 -0.1770
    1DIPC   C4A28520  19.270   0.251   4.574 -0.0725  0.4516  0.0876
    1DIPC   C1B28521  19.674   1.440   3.381 -0.0086 -0.3675 -0.3899
    1DIPC   D2B28522  19.625   1.864   3.584 -0.0245 -0.3644  0.1085
    1DIPC   D3B28523  20.066   1.908   3.714  0.0303 -0.2690 -0.1353
    1DIPC   C4B28524  20.110   1.871   4.088  0.1108 -0.0186  0.0629
    1DIPC   NC328525   9.744  29.598   3.153 -0.2477  0.2975 -0.0134
    1DIPC   PO428526   9.728  29.159   2.979 -0.0709  0.2022 -0.0633
    1DIPC   GL128527   9.840  29.173   3.393 -0.1500 -0.0744  0.1229
    1DIPC   GL228528   9.565  29.203   3.575  0.1151 -0.2815 -0.2575
    1DIPC   C1A28529  10.056  29.173   3.747  0.2267 -0.0371  0.2368
    1DIPC   D2A28530  10.327  29.586   3.974  0.0730 -0.1990 -0.0195
    1DIPC   D3A28531  10.489  29.248   4.222 -0.0192 -0.1744 -0.2679
    1DIPC   C4A28532  10.709  28.862   4.399  0.1970 -0.0849 -0.0095
    1DIPC   C1B28533   9.675  29.265   3.989 -0.3702  0.2526  0.0496
    1DIPC   D2B28534  10.021  29.315   4.282 -0.0677  0.0668  0.1704
    1DIPC   D3B28535  10.201  29.531   4.591  0.1709 -0.0421 -0.1355
    1DIPC   C4B28536   9.931  29.911   4.694  0.1776 -0.0303  0.0015
    1DIPC   NC328537  16.630  16.145   2.839  0.2109 -0.0824  0.1398
    1DIPC   PO428538  16.930  16.214   3.126  0.2591  0.0671  0.1541
    1DIPC   GL128539  17.328  16.509   3.222  0.2856  0.0193  0.2294
    1DIPC   GL228540  17.540  16.319   3.449 -0.0935  0.1567  0.2715
    1DIPC   C1A28541  17.382  16.824   3.496 -0.3268 -0.0566 -0.0156
    1DIPC   D2A28542  17.510  17.084   3.797  0.2295 -0.1163  0.1736
    1DIPC   D3A28543  17.074  16.774   3.858  0.0094 -0.0839  0.1016
    1DIPC   C4A28544  17.111  16.236   3.727 -0.3326  0.3247 -0.4631
    1DIPC   C1B28545  17.495  16.520   3.876  0.1539 -0.2045  0.0412
    1DIPC   D2B28546  17.653  16.636   4.242  0.1543 -0.2030 -0.2453
    1DIPC   D3B28547  17.594  17.067   4.355 -0.1212 -0.0357  0.1532
    1DIPC   C4B28548  17.848  17.370   4.152 -0.0201 -0.1732  0.1207
    1DIPC   NC328549  27.005   1.411   3.770  0.1818 -0.2485 -0.2999
    1DIPC   PO428550  27.223   1.917   3.741 -0.3160 -0.0430 -0.1354
    1DIPC   GL128551  27.133   2.293   4.048 -0.0858 -0.0209  0.0398
    1DIPC   GL228552  27.366   2.523   4.115  0.1445  0.1240  0.0827
    1DIPC   C1A28553  26.844   2.595   4.322  0.1024  0.0639 -0.0898
    1DIPC   D2A28554  26.720   2.568   4.712  0.0901 -0.6023  0.1008
    1DIPC   D3A28555  26.914   2.454   5.118 -0.1414  0.0617 -0.2381
    1DIPC   C4A28556  26.865   2.574   5.521  0.0796  0.2155 -0.0214
    1DIPC   C1B28557  27.570   2.753   4.470  0.1757  0.0250 -0.1112
    1DIPC   D2B28558  27.293   3.076   4.603 -0.1647  0.0067  0.5078
    1DIPC   D3B28559  27.115   2.846   4.846 -0.1140  0.0418  0.2275
    1DIPC   C4B28560  26.764   2.987   5.076 -0.1629 -0.0385  0.0819
    1DIPC   NC328561  19.578  27.233   3.278 -0.0379 -0.2046 -0.0036
    1DIPC   PO428562  19.126  27.334   3.161 -0.3122 -0.0941 -0.1703
    1DIPC   GL128563  19.225  27.505   3.592  0.2297  0.2257 -0.0528
    1DIPC   GL228564  19.313  27.252   3.743  0.3939 -0.3008 -0.0786
    1DIPC   C1A28565  19.591  27.532   3.986  0.1301 -0.3815 -0.0360
    1DIPC   D2A28566  19.691  27.464   4.451 -0.0115  0.2968 -0.2385
    1DIPC   D3A28567  20.079  27.230   4.517 -0.1672  0.4726 -0.0066
    1DIPC   C4A28568  20.504  27.234   4.347 -0.1404 -0.2270 -0.3518
    1DIPC   C1B28569  19.238  27.249   4.274 -0.1607 -0.0613 -0.1305
    1DIPC   D2B28570  19.283  27.234   4.689  0.2505  0.2907  0.4515
    1DIPC   D3B28571  19.224  27.682   4.745 -0.2211 -0.1314  0.0382
    1DIPC   C4B28572  19.332  27.861   5.113 -0.4001  0.0042  0.2092
    1DIPC   NC328573   4.639   2.095   3.494  0.1900 -0.1324  0.1244
    1DIPC   PO428574   4.948   2.488   3.564 -0.3655  0.0451 -0.0072
    1DIPC   GL128575   4.977   2.463   4.019 -0.0011  0.2416  0.0221
    1DIPC   GL228576   5.293   2.377   4.121 -0.0520  0.0892  0.1103
    1DIPC   C1A28577   4.730   2.478   4.416  0.0542 -0.1537  0.1493
    1DIPC   D2A28578   4.437   2.419   4.779  0.0697  0.3741  0.0465
    1DIPC   D3A28579   4.047   2.729   4.767 -0.2157  0.0304 -0.2163
    1DIPC   C4A28580   3.879   2.934   4.987 -0.0334  0.1027  0.0626
    1DIPC   C1B28581   5.110   2.171   4.554 -0.0929 -0.1017  0.0138
    1DIPC   D2B28582   4.936   2.271   4.977 -0.0374  0.1013 -0.1494
    1DIPC   D3B28583   5.347   2.581   5.043  0.4079  0.2536  0.0219
    1DIPC   C4B28584   5.614   2.454   5.278  0.3345  0.2547 -0.4207
    1DIPC   NC328585  22.255   0.220   3.334  0.1597  0.1109  0.0128
    1DIPC   PO428586  21.981  30.257   3.182 -0.1279  0.1241  0.0231
    1DIPC   GL128587  21.896  30.315   3.711 -0.2291  0.1323  0.2646
    1DIPC   GL228588  22.001   0.258   3.833  0.0966  0.0422  0.3799
    1DIPC   C1A28589  21.606   0.090   4.063 -0.3092 -0.0456 -0.1234
    1DIPC   D2A28590  21.687   0.351   4.361  0.0349 -0.0777 -0.0818
    1DIPC   D3A28591  21.294  30.355   4.449  0.0486 -0.1064 -0.2039
    1DIPC   C4A28592  21.320  30.108   4.184  0.0402  0.3257 -0.1291
    1DIPC   C1B28593  22.091   0.175   4.215 -0.0328 -0.2293 -0.0814
    1DIPC   D2B28594  22.135   0.211   4.695  0.1221 -0.2727 -0.1936
    1DIPC   D3B28595  22.502   0.503   4.581  0.0162  0.0294  0.1963
    1DIPC   C4B28596  22.586   0.858   4.846  0.3869 -0.2044  0.2906
    1DIPC   NC328597  17.723  25.979   2.803  0.1985 -0.1482  0.1325
    1DIPC   PO428598  17.642  25.595   2.805  0.0188 -0.1000 -0.1657
    1DIPC   GL128599  17.632  25.355   3.168  0.0081  0.1730  0.1393
    1DIPC   GL228600  17.441  25.582   3.375 -0.0376 -0.3129  0.0559
    1DIPC   C1A28601  17.734  25.119   3.507  0.1766  0.1576  0.0014
    1DIPC   D2A28602  17.885  24.848   3.718 -0.0564  0.3652 -0.1257
    1DIPC   D3A28603  17.897  25.169   4.020  0.1809 -0.3001  0.0205
    1DIPC   C4A28604  17.768  25.007   4.469 -0.3024  0.0789  0.2503
    1DIPC   C1B28605  17.442  25.906   3.517  0.1260 -0.2220  0.0271
    1DIPC   D2B28606  17.256  25.968   3.872  0.2639 -0.0772  0.0019
    1DIPC   D3B28607  17.288  26.206   4.208  0.1900  0.2130 -0.0306
    1DIPC   C4B28608  16.859  26.311   4.438 -0.1494 -0.1240 -0.1091
    1DIPC   NC328609  23.063  28.738   3.153 -0.0495 -0.1630  0.0569
    1DIPC   PO428610  22.759  28.395   3.370 -0.2354  0.2181 -0.3204
    1DIPC   GL128611  22.692  28.045   3.698 -0.1122  0.2926  0.0723
    1DIPC   GL228612  22.411  27.944   3.811  0.1872  0.0006  0.0718
    1DIPC   C1A28613  22.600  28.103   4.260  0.1150 -0.0207  0.2588
    1DIPC   D2A28614  22.296  28.306   4.483 -0.3468  0.1498 -0.1267
    1DIPC   D3A28615  22.180  28.686   4.553  0.3147  0.0422  0.0586
    1DIPC   C4A28616  22.272  28.970   4.227 -0.1438 -0.1776  0.0308
    1DIPC   C1B28617  22.150  27.914   4.194 -0.1803 -0.0943  0.0271
    1DIPC   D2B28618  21.687  28.120   4.243 -0.1585  0.5221 -0.3764
    1DIPC   D3B28619  21.888  28.490   4.156 -0.0155  0.1098  0.2864
    1DIPC   C4B28620  22.301  28.477   3.978 -0.0097 -0.1244 -0.2250
    1DIPC   NC328621   7.515   0.897   2.991 -0.1296 -0.0099 -0.0670
    1DIPC   PO428622   7.975   0.830   2.799 -0.1500  0.0524 -0.0657
    1DIPC   GL128623   7.989   0.878   3.250 -0.3348 -0.0643  0.2865
    1DIPC   GL228624   8.073   0.670   3.373 -0.0499  0.0636 -0.2476
    1DIPC   C1A28625   8.109   1.127   3.552  0.2748 -0.0540  0.4315
    1DIPC   D2A28626   8.488   1.281   3.669 -0.0441  0.1029 -0.4983
    1DIPC   D3A28627   8.514   1.607   3.994 -0.1225 -0.2986 -0.1031
    1DIPC   C4A28628   8.097   1.931   4.063  0.0904 -0.2079 -0.3152
    1DIPC   C1B28629   7.987   0.710   3.819  0.1283  0.1612 -0.0031
    1DIPC   D2B28630   8.131   0.792   4.254  0.0564  0.1671 -0.2182
    1DIPC   D3B28631   8.357   1.174   4.292  0.0053  0.1377  0.0475
    1DIPC   C4B28632   8.416   1.344   4.656 -0.3209 -0.0217 -0.0772
    1DIPC   NC328633  27.937  29.732   3.542 -0.2405 -0.4971  0.1302
    1DIPC   PO428634  27.844  30.169   3.866 -0.0841 -0.1334  0.1323
    1DIPC   GL128635  27.991  29.969   4.254 -0.3046 -0.1096 -0.0529
    1DIPC   GL228636  27.817  29.981   4.565 -0.0265 -0.2560  0.1360
    1DIPC   C1A28637  28.352  29.961   4.538 -0.0445 -0.0142 -0.2175
    1DIPC   D2A28638  28.366  29.945   4.912  0.0639  0.0571  0.1013
    1DIPC   D3A28639  27.949  30.059   5.036  0.0185  0.1638 -0.2025
    1DIPC   C4A28640  27.764  29.791   5.244  0.0415  0.6055  0.0564
    1DIPC   C1B28641  27.876  29.637   4.763 -0.2377  0.0165 -0.0558
    1DIPC   D2B28642  27.894  29.302   5.076  0.2172 -0.1509  0.1588
    1DIPC   D3B28643  27.432  29.315   4.989 -0.0294 -0.0066  0.0495
    1DIPC   C4B28644  27.431  29.449   4.653 -0.1609  0.0698 -0.1561
    1DIPC   NC328645  27.185  21.949   1.698  0.1859 -0.1708 -0.1572
    1DIPC   PO428646  26.792  22.060   1.888 -0.0410  0.0356 -0.3119
    1DIPC   GL128647  26.696  22.104   2.352 -0.0661  0.1421  0.1015
    1DIPC   GL228648  26.748  21.816   2.505 -0.2242 -0.0199  0.1187
    1DIPC   C1A28649  26.535  22.183   2.736  0.0989 -0.2536 -0.1735
    1DIPC   D2A28650  26.154  22.266   2.919 -0.3077  0.2459 -0.0748
    1DIPC   D3A28651  26.220  22.008   3.296  0.1435  0.1938  0.1465
    1DIPC   C4A28652  26.496  21.724   3.330 -0.0623 -0.2561 -0.0677
    1DIPC   C1B28653  26.597  21.505   2.843  0.1566  0.0755 -0.1247
    1DIPC   D2B28654  26.754  21.288   3.268  0.1441  0.0189 -0.2517
    1DIPC   D3B28655  26.789  21.152   3.637 -0.1766 -0.1651  0.1640
    1DIPC   C4B28656  27.222  20.923   3.741  0.2450  0.1724 -0.0056
    1DIPC   NC328657   7.034  28.756   3.082 -0.1891 -0.0946 -0.0191
    1DIPC   PO428658   7.360  28.750   3.147 -0.4846 -0.1034  0.3125
    1DIPC   GL128659   7.736  28.750   3.486  0.3046  0.2290 -0.4986
    1DIPC   GL228660   7.943  28.807   3.227 -0.0342 -0.4196 -0.4789
    1DIPC   C1A28661   7.960  28.699   3.904  0.1152 -0.0922  0.2539
    1DIPC   D2A28662   7.836  28.879   4.334 -0.2384 -0.3259  0.0370
    1DIPC   D3A28663   7.848  28.448   4.582 -0.2750 -0.1783  0.1645
    1DIPC   C4A28664   8.255  28.300   4.763 -0.1889  0.2561 -0.2095
    1DIPC   C1B28665   8.264  28.728   3.535 -0.0353  0.3161 -0.1166
    1DIPC   D2B28666   8.660  28.767   3.760  0.2675  0.0256 -0.2441
    1DIPC   D3B28667   8.567  28.754   4.151 -0.1836 -0.2742 -0.2163
    1DIPC   C4B28668   8.306  28.679   4.420  0.0268  0.2083  0.1438
    1DIPC   NC328669  16.427  19.505   2.471  0.2749 -0.0162  0.0782
    1DIPC   PO428670  16.660  19.792   2.560 -0.2084  0.1673 -0.0267
    1DIPC   GL128671  16.576  19.685   2.976  0.0159  0.2622  0.0897
    1DIPC   GL228672  16.264  19.797   2.917 -0.2129  0.1400 -0.3459
    1DIPC   C1A28673  16.543  19.727   3.421  0.1442 -0.2286  0.4512
    1DIPC   D2A28674  16.419  19.680   3.835  0.1857  0.2134 -0.1312
    1DIPC   D3A28675  16.519  19.864   4.214  0.1944 -0.1816  0.1069
    1DIPC   C4A28676  16.882  19.924   4.446 -0.2243 -0.1264  0.0002
    1DIPC   C1B28677  16.120  19.383   3.010  0.0691  0.5401  0.3218
    1DIPC   D2B28678  15.743  19.213   3.126  0.0192  0.0668 -0.1818
    1DIPC   D3B28679  15.708  19.193   3.505  0.0693 -0.0445  0.1288
    1DIPC   C4B28680  15.947  19.583   3.862  0.0078  0.5066  0.2494
    1DIPC   NC328681  20.967  27.515   3.022 -0.0336 -0.0140  0.1519
    1DIPC   PO428682  20.609  27.236   3.012 -0.0914  0.1330  0.2375
    1DIPC   GL128683  20.747  26.996   3.374  0.1290 -0.0215 -0.0241
    1DIPC   GL228684  20.410  27.200   3.499 -0.0082 -0.1500  0.0843
    1DIPC   C1A28685  20.956  27.031   3.631 -0.5247  0.0041 -0.3697
    1DIPC   D2A28686  21.268  27.090   3.923 -0.0389  0.2070  0.0814
    1DIPC   D3A28687  21.425  26.762   3.645 -0.3158 -0.0230 -0.0455
    1DIPC   C4A28688  21.337  26.396   3.817  0.2409  0.0422 -0.0455
    1DIPC   C1B28689  20.488  27.003   3.801  0.0747 -0.2670 -0.0828
    1DIPC   D2B28690  20.326  26.805   4.191 -0.0186  0.5176  0.0434
    1DIPC   D3B28691  19.982  26.688   4.051  0.1807 -0.2126 -0.1216
    1DIPC   C4B28692  19.559  26.903   4.088 -0.1401 -0.0028 -0.1166
    1DIPC   NC328693  25.559  27.146   3.510 -0.1249  0.1564 -0.2215
    1DIPC   PO428694  25.754  27.411   3.596  0.2201  0.1047  0.0942
    1DIPC   GL128695  25.784  27.372   4.069  0.1632 -0.2034 -0.1784
    1DIPC   GL228696  26.172  27.280   4.178 -0.0243  0.0254  0.1770
    1DIPC   C1A28697  25.754  27.272   4.528 -0.0821 -0.1164  0.0257
    1DIPC   D2A28698  25.732  27.220   4.979 -0.2489 -0.0458 -0.0421
    1DIPC   D3A28699  26.004  27.573   4.959 -0.0134  0.0380 -0.1649
    1DIPC   C4A28700  26.379  27.589   5.228  0.0378 -0.0890  0.3829
    1DIPC   C1B28701  26.227  27.181   4.599  0.0193  0.2657  0.1250
    1DIPC   D2B28702  26.161  27.005   4.935 -0.0660  0.0920  0.1631
    1DIPC   D3B28703  26.137  26.644   5.086 -0.1998  0.2639 -0.2495
    1DIPC   C4B28704  26.070  26.300   4.789  0.1631 -0.0556  0.0277
    1DIPC   NC328705  11.894  11.404   2.906 -0.1229 -0.2207 -0.2204
    1DIPC   PO428706  11.832  11.527   3.358 -0.1520 -0.0246  0.0998
    1DIPC   GL128707  11.697  11.813   3.675  0.3392  0.0423 -0.1099
    1DIPC   GL228708  11.444  12.002   3.602 -0.2846  0.0620 -0.0420
    1DIPC   C1A28709  11.683  12.022   4.056 -0.0807  0.4279 -0.0306
    1DIPC   D2A28710  11.761  12.219   4.347 -0.0896  0.0793  0.1998
    1DIPC   D3A28711  11.785  11.824   4.633  0.1584  0.0065 -0.0641
    1DIPC   C4A28712  12.098  11.429   4.548  0.1292  0.1055 -0.0603
    1DIPC   C1B28713  11.316  11.726   3.904  0.0862  0.1204 -0.1756
    1DIPC   D2B28714  11.511  11.589   4.245  0.0690  0.1494  0.0357
    1DIPC   D3B28715  11.154  11.454   4.375  0.2358  0.0179  0.1892
    1DIPC   C4B28716  11.012  11.447   4.853 -0.1856  0.2376 -0.0297
    1DIPC   NC328717  28.094   6.333   3.059  0.0256 -0.1262  0.0927
    1DIPC   PO428718  27.891   5.983   3.214  0.0113  0.2263  0.3844
    1DIPC   GL128719  27.980   6.149   3.611 -0.2013  0.1302 -0.1210
    1DIPC   GL228720  27.694   6.261   3.806 -0.0029  0.3136 -0.5143
    1DIPC   C1A28721  28.176   6.177   3.958 -0.1419 -0.2022 -0.1666
    1DIPC   D2A28722  28.254   6.405   4.375  0.1693 -0.1060  0.0554
    1DIPC   D3A28723  27.910   6.595   4.579 -0.0161 -0.2441 -0.2238
    1DIPC   C4A28724  27.753   6.311   4.820  0.0493  0.1066 -0.2872
    1DIPC   C1B28725  27.689   6.124   4.264  0.0080 -0.0432 -0.2357
    1DIPC   D2B28726  27.697   5.834   4.601 -0.3408 -0.2216 -0.1481
    1DIPC   D3B28727  27.522   5.812   4.993  0.1047  0.1416 -0.0692
    1DIPC   C4B28728  27.497   5.447   5.381  0.3662  0.0559 -0.1234
    1DIPC   NC328729  29.354  27.359   3.091  0.1421 -0.2149 -0.0388
    1DIPC   PO428730  29.773  27.263   3.244 -0.1753  0.2412 -0.3835
    1DIPC   GL128731  29.490  27.490   3.566  0.2169 -0.1985 -0.1767
    1DIPC   GL228732  29.237  27.655   3.529 -0.1499 -0.0820 -0.0956
    1DIPC   C1A28733  29.401  27.630   4.062  0.0520  0.4137  0.0154
    1DIPC   D2A28734  29.050  27.439   4.392 -0.0672 -0.0942  0.1515
    1DIPC   D3A28735  28.639  27.457   4.124  0.1964  0.0339 -0.0692
    1DIPC   C4A28736  28.238  27.286   4.179 -0.2000  0.2482  0.1398
    1DIPC   C1B28737  28.947  27.674   3.749 -0.1080  0.0885  0.1504
    1DIPC   D2B28738  28.554  27.885   3.901 -0.2406 -0.2508  0.1844
    1DIPC   D3B28739  28.274  27.754   4.247 -0.1669  0.1584  0.2172
    1DIPC   C4B28740  28.335  27.512   4.610 -0.1701 -0.1775 -0.1112
    1DIPC   NC328741  16.714  12.083   2.281  0.0077  0.1674 -0.0182
    1DIPC   PO428742  16.951  11.824   2.555 -0.1664 -0.1429 -0.1389
    1DIPC   GL128743  17.011  11.831   2.946  0.1416 -0.1310 -0.3372
    1DIPC   GL228744  17.247  12.007   3.179  0.1844 -0.1551 -0.3192
    1DIPC   C1A28745  16.933  11.684   3.329  0.1335 -0.0573 -0.3741
    1DIPC   D2A28746  16.886  11.996   3.699  0.0644  0.1066  0.3915
    1DIPC   D3A28747  17.000  11.541   3.947  0.0396  0.2565  0.2458
    1DIPC   C4A28748  16.978  11.247   4.323 -0.0817  0.2200  0.4436
    1DIPC   C1B28749  17.356  11.767   3.636  0.2551  0.0938 -0.1593
    1DIPC   D2B28750  17.515  11.586   4.017  0.1479  0.0812 -0.4093
    1DIPC   D3B28751  17.587  11.847   4.352  0.0981 -0.2584  0.3426
    1DIPC   C4B28752  17.463  12.315   4.423 -0.0599 -0.0981  0.1247
    1DIPC   NC328753  14.235   1.749   2.947  0.0501  0.3439  0.2622
    1DIPC   PO428754  13.814   1.634   2.938 -0.1552 -0.4997  0.0103
    1DIPC   GL128755  13.729   1.665   3.307  0.1610  0.1791  0.0880
    1DIPC   GL228756  14.069   1.754   3.470  0.0394  0.0259 -0.5936
    1DIPC   C1A28757  13.666   1.636   3.718  0.0268 -0.0186 -0.2584
    1DIPC   D2A28758  13.639   1.353   4.129  0.3286  0.4248 -0.1418
    1DIPC   D3A28759  13.839   1.508   4.539 -0.3079  0.0424  0.2986
    1DIPC   C4A28760  13.969   1.893   4.350  0.1203 -0.1171  0.3857
    1DIPC   C1B28761  14.092   2.008   3.815 -0.1261  0.0610 -0.1268
    1DIPC   D2B28762  14.351   2.357   4.096  0.3415  0.2134  0.1679
    1DIPC   D3B28763  14.017   2.377   4.386  0.0799  0.1195  0.1666
    1DIPC   C4B28764  13.533   2.380   4.557 -0.0137 -0.0683  0.0329
    1DIPC   NC328765   3.756  10.235   2.537 -0.0969  0.1544  0.2996
    1DIPC   PO428766   3.830   9.884   2.282  0.0405 -0.1697 -0.0269
    1DIPC   GL128767   3.887   9.767   2.739 -0.0135 -0.1434  0.0947
    1DIPC   GL228768   4.064   9.578   2.958  0.2729  0.1650  0.2932
    1DIPC   C1A28769   3.771   9.863   3.194 -0.0566  0.2773  0.0220
    1DIPC   D2A28770   3.845  10.199   3.409  0.0252  0.1793 -0.1932
    1DIPC   D3A28771   3.619  10.448   3.634 -0.0402  0.0268 -0.1748
    1DIPC   C4A28772   3.578  10.539   4.128  0.1536  0.0845 -0.0056
    1DIPC   C1B28773   4.242   9.603   3.312 -0.3383 -0.0519  0.3493
    1DIPC   D2B28774   4.419   9.812   3.744 -0.1018  0.0723 -0.0982
    1DIPC   D3B28775   4.012   9.946   3.839 -0.0704 -0.1858 -0.2735
    1DIPC   C4B28776   3.984  10.395   3.959 -0.1213  0.1094  0.0278
    1DIPC   NC328777  17.669   2.840   2.578  0.0490 -0.0214  0.5316
    1DIPC   PO428778  17.779   3.271   2.668  0.1802  0.1768 -0.0539
    1DIPC   GL128779  18.021   3.278   3.053 -0.1018 -0.0069  0.0260
    1DIPC   GL228780  18.183   3.527   3.111 -0.3026  0.1165  0.1726
    1DIPC   C1A28781  17.914   3.190   3.465 -0.2876 -0.0314 -0.0388
    1DIPC   D2A28782  17.714   3.248   3.914 -0.0435 -0.2000 -0.1423
    1DIPC   D3A28783  18.049   3.178   4.177  0.1729  0.1442 -0.0280
    1DIPC   C4A28784  18.348   3.583   4.271  0.1763  0.3012 -0.0853
    1DIPC   C1B28785  17.796   3.732   3.317 -0.2518 -0.0647  0.0946
    1DIPC   D2B28786  17.315   3.897   3.460 -0.3464  0.0941  0.1680
    1DIPC   D3B28787  17.369   4.285   3.752  0.0835 -0.1700  0.0957
    1DIPC   C4B28788  17.140   4.563   3.744  0.2071  0.0006 -0.3855
    1DIPC   NC328789  16.033  29.555   2.718  0.3996  0.2298 -0.0768
    1DIPC   PO428790  15.902  29.651   3.070 -0.1189 -0.1182  0.1555
    1DIPC   GL128791  15.918  29.496   3.516 -0.0540  0.1048 -0.0339
    1DIPC   GL228792  16.053  29.141   3.451 -0.1872  0.1749 -0.2129
    1DIPC   C1A28793  15.768  29.713   3.874  0.2445  0.0122 -0.2643
    1DIPC   D2A28794  15.636  30.108   4.063 -0.5691 -0.0032  0.0046
    1DIPC   D3A28795  15.605   0.138   4.300 -0.0589 -0.2199  0.1129
    1DIPC   C4A28796  15.777   0.039   4.703  0.3534 -0.1332  0.0466
    1DIPC   C1B28797  16.049  29.028   3.830 -0.1165 -0.0902  0.2137
    1DIPC   D2B28798  16.283  29.033   4.120  0.1180  0.1764  0.1292
    1DIPC   D3B28799  16.400  28.710   4.430  0.0018  0.1221 -0.1824
    1DIPC   C4B28800  16.137  28.301   4.502  0.2118  0.2618 -0.1683
    1DIPC   NC328801   6.904  27.711   2.400 -0.1765  0.0453 -0.0618
    1DIPC   PO428802   7.062  27.662   2.810  0.2240 -0.1985  0.0939
    1DIPC   GL128803   7.085  27.772   3.208  0.0638 -0.1464  0.0781
    1DIPC   GL228804   7.343  27.584   3.395 -0.0647 -0.1739  0.0584
    1DIPC   C1A28805   7.050  27.940   3.576 -0.2240  0.1497 -0.2384
    1DIPC   D2A28806   7.232  28.053   3.972 -0.1022 -0.2541  0.2721
    1DIPC   D3A28807   7.030  28.234   4.415 -0.1914 -0.0611  0.1731
    1DIPC   C4A28808   6.729  28.050   4.569 -0.1407  0.3925  0.4279
    1DIPC   C1B28809   7.625  27.776   3.692 -0.4756  0.2789 -0.1469
    1DIPC   D2B28810   7.708  27.765   4.171  0.1148  0.1235  0.0974
    1DIPC   D3B28811   7.985  27.541   4.088  0.1075  0.1437 -0.2598
    1DIPC   C4B28812   7.775  27.172   4.344  0.2076 -0.3342  0.2123
    1DIPC   NC328813  24.525  28.269   3.123  0.0562 -0.1662 -0.0826
    1DIPC   PO428814  24.658  28.677   3.254  0.1344  0.0065  0.1115
    1DIPC   GL128815  24.465  28.479   3.617  0.0662 -0.0058 -0.0009
    1DIPC   GL228816  24.575  28.120   3.577  0.1287  0.0872  0.1792
    1DIPC   C1A28817  24.234  28.287   3.959 -0.0013  0.0061 -0.0114
    1DIPC   D2A28818  23.996  27.987   4.230  0.3101 -0.3896  0.1595
    1DIPC   D3A28819  23.881  28.143   4.641 -0.2701  0.1082  0.1308
    1DIPC   C4A28820  23.711  28.472   4.952  0.0254  0.1097 -0.0221
    1DIPC   C1B28821  24.700  28.197   4.063  0.0306 -0.0427 -0.0402
    1DIPC   D2B28822  24.946  28.315   4.396  0.2056  0.4959 -0.0493
    1DIPC   D3B28823  25.140  28.071   4.593 -0.0099  0.0286 -0.0884
    1DIPC   C4B28824  25.572  28.150   4.499  0.2831  0.1191  0.0162
    1DIPC   NC328825   4.913   3.776   3.293  0.1542 -0.0125  0.0950
    1DIPC   PO428826   5.323   3.743   3.488 -0.2578 -0.0489  0.2825
    1DIPC   GL128827   5.392   3.643   3.894  0.1956 -0.3790  0.1218
    1DIPC   GL228828   5.371   3.439   4.083 -0.2693  0.0457  0.1405
    1DIPC   C1A28829   5.682   3.793   4.239  0.0389 -0.1709  0.1023
    1DIPC   D2A28830   5.940   3.536   4.540  0.1416 -0.4886  0.1055
    1DIPC   D3A28831   5.438   3.530   4.783 -0.3521  0.0473  0.0509
    1DIPC   C4A28832   5.169   3.676   4.571  0.0846 -0.0541 -0.1934
    1DIPC   C1B28833   5.619   3.216   4.380  0.1025 -0.0135  0.1317
    1DIPC   D2B28834   5.675   3.057   4.840 -0.1637 -0.0673  0.0852
    1DIPC   D3B28835   5.345   3.061   5.098 -0.0931 -0.0851  0.0257
    1DIPC   C4B28836   5.217   3.337   5.400  0.0928  0.3238  0.2342
    1DIPC   NC328837  21.273  28.855   3.063  0.1500 -0.3881  0.1560
    1DIPC   PO428838  20.834  29.050   2.875 -0.0938 -0.2066  0.2176
    1DIPC   GL128839  20.756  28.752   3.260  0.0229  0.1076  0.2206
    1DIPC   GL228840  20.485  28.582   3.309 -0.1766  0.3337  0.0067
    1DIPC   C1A28841  20.937  28.659   3.629 -0.1840  0.0910 -0.0193
    1DIPC   D2A28842  21.179  28.861   3.949 -0.1725  0.1411 -0.0038
    1DIPC   D3A28843  20.848  29.188   4.026  0.0372  0.2842  0.0003
    1DIPC   C4A28844  20.510  29.449   3.874  0.2016 -0.5548  0.0618
    1DIPC   C1B28845  20.491  28.811   3.688  0.0179  0.0498 -0.0131
    1DIPC   D2B28846  20.572  28.783   4.117 -0.0849  0.1089 -0.1397
    1DIPC   D3B28847  20.912  28.688   4.354  0.0736 -0.1656  0.0047
    1DIPC   C4B28848  20.811  28.834   4.766 -0.3766  0.1558  0.1898
    1DIPC   NC328849  27.129  28.233   3.452 -0.1966  0.1592  0.1108
    1DIPC   PO428850  26.787  28.511   3.583 -0.2360  0.0112  0.0536
    1DIPC   GL128851  26.624  28.550   3.964  0.3953  0.1927  0.1103
    1DIPC   GL228852  26.332  28.524   3.911 -0.1919 -0.0041  0.1570
    1DIPC   C1A28853  26.807  28.753   4.340  0.0979  0.0020 -0.1038
    1DIPC   D2A28854  27.087  28.734   4.807  0.2494  0.1245 -0.1349
    1DIPC   D3A28855  26.999  29.068   5.160 -0.0829 -0.0158  0.1524
    1DIPC   C4A28856  27.129  29.115   5.590  0.0157  0.0494  0.1279
    1DIPC   C1B28857  26.308  28.811   4.319 -0.0553 -0.2652  0.5618
    1DIPC   D2B28858  25.975  29.101   4.270 -0.2506 -0.4001 -0.0297
    1DIPC   D3B28859  25.529  29.071   4.507 -0.0378 -0.1023 -0.0419
    1DIPC   C4B28860  25.374  29.019   4.962  0.1492  0.2074 -0.1540
    1DIPC   NC328861  29.256  28.316   3.425  0.1267 -0.2948  0.2214
    1DIPC   PO428862  29.537  28.074   3.546 -0.1598  0.0378  0.1954
    1DIPC   GL128863  29.124  28.097   3.858 -0.2241 -0.1436  0.0252
    1DIPC   GL228864  28.858  28.330   3.770  0.2542 -0.0494  0.1281
    1DIPC   C1A28865  28.934  27.897   4.188  0.1449 -0.0232 -0.0593
    1DIPC   D2A28866  28.773  27.747   4.574  0.1888 -0.1533  0.0215
    1DIPC   D3A28867  28.770  27.476   4.968  0.2389  0.3718 -0.0694
    1DIPC   C4A28868  28.351  27.546   5.254  0.2034 -0.0693 -0.0724
    1DIPC   C1B28869  28.868  28.355   4.233  0.2837  0.0539  0.0162
    1DIPC   D2B28870  29.013  28.249   4.636 -0.1888  0.0090  0.0247
    1DIPC   D3B28871  28.732  28.053   4.988 -0.0100 -0.0578 -0.0050
    1DIPC   C4B28872  28.610  28.049   5.469  0.0487 -0.1367 -0.2168
    1DIPC   NC328873  17.799  21.899   2.774  0.0470  0.0500 -0.0957
    1DIPC   PO428874  17.946  21.550   2.505  0.1601 -0.2322 -0.1290
    1DIPC   GL128875  17.764  21.437   2.916  0.1976  0.3130  0.1158
    1DIPC   GL228876  17.826  21.104   3.163  0.2912  0.0594 -0.4349
    1DIPC   C1A28877  17.569  21.485   3.229 -0.1481  0.1891  0.1795
    1DIPC   D2A28878  17.487  21.454   3.650  0.0535  0.0295  0.0476
    1DIPC   D3A28879  17.789  21.442   4.026  0.0716 -0.3825 -0.2266
    1DIPC   C4A28880  18.024  21.755   4.001 -0.0332  0.0433 -0.2168
    1DIPC   C1B28881  17.926  21.300   3.515 -0.0645 -0.2692 -0.2304
    1DIPC   D2B28882  18.272  21.323   3.894 -0.1496  0.1999  0.0955
    1DIPC   D3B28883  18.243  20.989   4.114  0.0246 -0.0248  0.1326
    1DIPC   C4B28884  18.615  20.959   4.367 -0.4277 -0.2031 -0.1604
    1DIPC   NC328885  20.913  14.068   2.289  0.1818  0.2004  0.1074
    1DIPC   PO428886  20.729  14.371   2.501  0.0618 -0.1273 -0.1873
    1DIPC   GL128887  20.570  14.499   2.762  0.0104 -0.0498 -0.2399
    1DIPC   GL228888  20.452  14.339   3.062  0.0322  0.2226  0.0103
    1DIPC   C1A28889  20.728  14.755   3.147 -0.1607  0.1327 -0.1252
    1DIPC   D2A28890  20.635  14.641   3.561  0.1628 -0.0582  0.0544
    1DIPC   D3A28891  20.786  15.044   3.706 -0.0837  0.2105  0.1465
    1DIPC   C4A28892  21.249  15.011   3.937  0.0119 -0.0109  0.2985
    1DIPC   C1B28893  20.403  14.201   3.527  0.1046  0.1535 -0.1333
    1DIPC   D2B28894  20.418  13.893   3.818  0.3197  0.0286  0.3395
    1DIPC   D3B28895  20.117  14.088   3.938 -0.0881 -0.4288  0.1120
    1DIPC   C4B28896  19.856  13.923   4.314  0.0516  0.0984  0.0540
    1DIPC   NC328897   9.787   1.349   2.621  0.3170  0.3432 -0.2698
    1DIPC   PO428898   9.794   1.215   2.995 -0.1060  0.4709  0.0954
    1DIPC   GL128899   9.779   1.435   3.304  0.1403 -0.1041 -0.1174
    1DIPC   GL228900   9.561   1.634   3.622  0.3740 -0.0041  0.3039
    1DIPC   C1A28901   9.989   1.550   3.719 -0.0698 -0.3043 -0.1500
    1DIPC   D2A28902   9.868   1.534   4.072 -0.2269 -0.0875  0.4798
    1DIPC   D3A28903  10.134   1.502   4.303 -0.0984 -0.1453  0.1988
    1DIPC   C4A28904  10.249   1.301   4.675 -0.0704 -0.0414 -0.0039
    1DIPC   C1B28905   9.572   1.243   3.807 -0.0754  0.2448  0.3159
    1DIPC   D2B28906   9.471   1.095   4.225  0.1828  0.1997  0.0941
    1DIPC   D3B28907   9.372   1.462   4.258  0.4122 -0.1264  0.3195
    1DIPC   C4B28908   9.261   1.589   4.680 -0.1095 -0.0631 -0.2752
    1DIPC   NC328909   3.093   4.166   2.587  0.1317 -0.1329 -0.0898
    1DIPC   PO428910   3.524   4.232   2.866 -0.0594 -0.3781 -0.0987
    1DIPC   GL128911   3.586   4.109   3.252 -0.1014 -0.0884  0.2535
    1DIPC   GL228912   3.404   4.355   3.345  0.0790  0.1249  0.1570
    1DIPC   C1A28913   3.695   3.947   3.647  0.0272 -0.0782  0.0327
    1DIPC   D2A28914   4.008   3.719   3.851  0.1365  0.2826 -0.0225
    1DIPC   D3A28915   3.839   4.037   4.165 -0.0532 -0.0837  0.1577
    1DIPC   C4A28916   4.070   4.269   4.510 -0.3513 -0.0140 -0.2946
    1DIPC   C1B28917   3.686   4.407   3.702 -0.4656 -0.1499  0.2515
    1DIPC   D2B28918   3.925   4.762   3.882  0.2117 -0.0810 -0.1109
    1DIPC   D3B28919   3.873   4.549   4.133  0.2708 -0.2796 -0.2555
    1DIPC   C4B28920   3.559   4.629   4.472 -0.0188  0.0553 -0.1150
    1DIPC   NC328921   8.819  27.672   2.683  0.0902 -0.1866  0.0618
    1DIPC   PO428922   9.065  27.729   2.987 -0.1369 -0.1759 -0.2608
    1DIPC   GL128923   8.861  27.917   3.401 -0.3421 -0.1144  0.2595
    1DIPC   GL228924   9.141  28.054   3.469  0.0767 -0.1639  0.2197
    1DIPC   C1A28925   8.551  28.247   3.583  0.2662  0.2811  0.0841
    1DIPC   D2A28926   8.394  28.391   3.880 -0.0031 -0.0814 -0.2687
    1DIPC   D3A28927   8.553  28.110   4.174 -0.0058 -0.0690 -0.2316
    1DIPC   C4A28928   8.582  27.681   4.231  0.1957 -0.0834 -0.2889
    1DIPC   C1B28929   9.356  28.044   3.844 -0.1250 -0.2481 -0.0391
    1DIPC   D2B28930   9.388  28.321   4.193 -0.0853 -0.4258  0.2431
    1DIPC   D3B28931   9.424  28.119   4.614  0.0247  0.1899 -0.2302
    1DIPC   C4B28932   9.607  28.238   4.999 -0.1069  0.2286 -0.2167
    1DIPC   NC328933  23.262  22.523   2.416  0.1543  0.2295  0.0344
    1DIPC   PO428934  23.542  22.119   2.346 -0.0383  0.0518  0.0895
    1DIPC   GL128935  23.270  22.054   2.725  0.1297 -0.0138  0.3362
    1DIPC   GL228936  23.015  21.767   2.821 -0.1796 -0.1574  0.2448
    1DIPC   C1A28937  23.236  22.215   3.147  0.1269 -0.1963 -0.1124
    1DIPC   D2A28938  23.305  22.501   3.461 -0.1400  0.1952  0.1914
    1DIPC   D3A28939  23.304  22.260   3.920  0.0489  0.1727  0.0639
    1DIPC   C4A28940  22.893  22.205   4.060 -0.0407 -0.3362 -0.1018
    1DIPC   C1B28941  22.842  21.979   3.230  0.1387  0.2537  0.3136
    1DIPC   D2B28942  22.721  22.044   3.604  0.2167 -0.0032  0.2098
    1DIPC   D3B28943  22.214  22.078   3.590  0.1644 -0.0550 -0.3299
    1DIPC   C4B28944  22.164  21.802   3.857 -0.0406  0.1768  0.4154
    1DIPC   NC328945  16.287  27.996   3.218  0.0901 -0.0016 -0.0951
    1DIPC   PO428946  16.644  27.769   3.070 -0.2074 -0.0484 -0.0941
    1DIPC   GL128947  16.689  27.886   3.485  0.0139  0.1350 -0.4485
    1DIPC   GL228948  17.025  27.796   3.497 -0.2498  0.0049 -0.1032
    1DIPC   C1A28949  16.503  27.935   3.860  0.3324 -0.1007  0.0149
    1DIPC   D2A28950  16.384  27.936   4.284  0.0741 -0.0941  0.1356
    1DIPC   D3A28951  16.715  27.630   4.316  0.0410  0.0285  0.0684
    1DIPC   C4A28952  16.783  27.529   3.912 -0.3442  0.4795  0.1678
    1DIPC   C1B28953  17.298  28.135   3.613  0.1645 -0.3297 -0.3760
    1DIPC   D2B28954  17.578  28.411   3.811  0.0290  0.2923 -0.3277
    1DIPC   D3B28955  17.354  28.707   3.665  0.1166  0.0518 -0.0484
    1DIPC   C4B28956  16.940  28.900   3.833  0.0440  0.2985 -0.1241
    1DIPC   NC328957   7.460  24.083   1.995  0.2174 -0.1438  0.4961
    1DIPC   PO428958   7.055  24.031   2.262  0.3259  0.1734 -0.4068
    1DIPC   GL128959   6.975  24.246   2.648  0.4152 -0.3726  0.2110
    1DIPC   GL228960   7.131  24.007   2.818  0.2080  0.1030 -0.1611
    1DIPC   C1A28961   6.998  24.447   3.043 -0.2210 -0.1113  0.1584
    1DIPC   D2A28962   6.882  24.507   3.452  0.2992  0.0191 -0.1955
    1DIPC   D3A28963   6.921  24.434   3.872  0.1063  0.2323  0.2402
    1DIPC   C4A28964   7.193  24.620   4.096  0.1466  0.0756 -0.5342
    1DIPC   C1B28965   7.046  23.757   3.213  0.1616  0.0659 -0.1532
    1DIPC   D2B28966   7.256  23.642   3.607  0.0081  0.0671  0.4009
    1DIPC   D3B28967   7.058  23.379   3.766  0.1460 -0.0695  0.0276
    1DIPC   C4B28968   6.752  23.290   4.048  0.1916 -0.1150 -0.4480
    1DIPC   NC328969  13.841   6.294   2.427  0.2244  0.0829 -0.0807
    1DIPC   PO428970  13.849   6.582   2.778  0.2551  0.2181 -0.2167
    1DIPC   GL128971  13.614   6.664   3.023  0.1843 -0.0610  0.2347
    1DIPC   GL228972  13.303   6.465   2.928 -0.0113  0.3228  0.0476
    1DIPC   C1A28973  13.504   6.866   3.370 -0.3927 -0.1177 -0.3201
    1DIPC   D2A28974  13.571   6.822   3.714 -0.3017 -0.0371 -0.0389
    1DIPC   D3A28975  13.683   6.616   4.216  0.4539  0.0281  0.1436
    1DIPC   C4A28976  13.965   6.424   4.369  0.2616 -0.2008  0.0879
    1DIPC   C1B28977  13.298   6.286   3.351 -0.0878 -0.1270 -0.0366
    1DIPC   D2B28978  13.355   6.400   3.757 -0.3861 -0.0278  0.0396
    1DIPC   D3B28979  13.817   6.286   3.887  0.0615 -0.5393 -0.0239
    1DIPC   C4B28980  14.040   5.967   3.672 -0.0863  0.0811  0.1092
    1DIPC   NC328981   5.580  27.649   2.958 -0.0142 -0.1522 -0.1090
    1DIPC   PO428982   5.804  27.263   3.053  0.0344  0.0210 -0.1132
    1DIPC   GL128983   5.636  27.328   3.417  0.1530 -0.2214  0.2147
    1DIPC   GL228984   5.705  27.650   3.469 -0.3287  0.0954 -0.2704
    1DIPC   C1A28985   5.434  27.460   3.808  0.2267  0.0965 -0.1860
    1DIPC   D2A28986   5.494  27.436   4.348 -0.2323 -0.1131  0.2734
    1DIPC   D3A28987   5.968  27.420   4.433 -0.1580 -0.1400 -0.0884
    1DIPC   C4A28988   6.222  27.192   4.369  0.2708  0.2689  0.2720
    1DIPC   C1B28989   6.050  27.773   3.514  0.0119 -0.3631  0.1516
    1DIPC   D2B28990   6.450  27.687   3.440  0.3439 -0.2754  0.0320
    1DIPC   D3B28991   6.594  27.989   3.737 -0.0227 -0.2441 -0.1361
    1DIPC   C4B28992   6.788  27.820   4.071  0.2241 -0.3404  0.4452
    1DIPC   NC328993   9.896  24.500   1.930  0.1172  0.1038  0.0837
    1DIPC   PO428994   9.925  24.587   2.312  0.1495 -0.2270  0.0738
    1DIPC   GL128995   9.952  24.459   2.752  0.2192  0.0347  0.1714
    1DIPC   GL228996   9.976  24.682   2.978 -0.1934 -0.0915  0.0933
    1DIPC   C1A28997   9.967  24.266   3.263 -0.1751 -0.1524 -0.1226
    1DIPC   D2A28998  10.166  24.097   3.633 -0.0826  0.2409  0.0917
    1DIPC   D3A28999  10.045  24.356   4.035 -0.1569  0.3499  0.1228
    1DIPC   C4A29000   9.661  24.354   4.161  0.0432  0.0994  0.2466
    1DIPC   C1B29001  10.206  24.862   3.253 -0.1629  0.2202  0.0410
    1DIPC   D2B29002  10.166  24.587   3.590 -0.1030  0.0012  0.1674
    1DIPC   D3B29003   9.737  24.598   3.697 -0.1181  0.1047 -0.2801
    1DIPC   C4B29004   9.553  24.846   3.985  0.1758 -0.2134  0.2134
    1DIPC   NC329005  21.773  22.861   2.465  0.0240 -0.1386  0.0515
    1DIPC   PO429006  22.197  22.841   2.533 -0.0595  0.3170  0.1610
    1DIPC   GL129007  21.985  22.748   2.908  0.0337 -0.0288  0.1684
    1DIPC   GL229008  21.689  23.082   2.981 -0.1898  0.3088 -0.1727
    1DIPC   C1A29009  21.927  22.667   3.276  0.1333  0.1619  0.1345
    1DIPC   D2A29010  21.658  22.602   3.744 -0.0473 -0.0748  0.1769
    1DIPC   D3A29011  21.474  22.476   4.075 -0.0478  0.2584 -0.0602
    1DIPC   C4A29012  21.528  22.237   4.477  0.0659 -0.1226  0.0601
    1DIPC   C1B29013  21.952  23.135   3.340 -0.4675  0.2090 -0.0865
    1DIPC   D2B29014  22.046  23.220   3.765 -0.2817 -0.1458  0.0656
    1DIPC   D3B29015  22.433  23.410   3.873  0.2064 -0.0853  0.1903
    1DIPC   C4B29016  22.730  23.138   3.683 -0.1673  0.1552  0.0136
    1DIPC   NC329017  23.687  20.262   2.113  0.2678 -0.1212  0.0633
    1DIPC   PO429018  23.510  19.908   2.224  0.1026 -0.2081  0.0798
    1DIPC   GL129019  23.433  19.920   2.647 -0.1389  0.1623  0.1355
    1DIPC   GL229020  23.458  20.275   2.716  0.1367 -0.1278 -0.0123
    1DIPC   C1A29021  23.095  19.786   3.023 -0.2553 -0.1307  0.2273
    1DIPC   D2A29022  23.081  19.662   3.408  0.0583 -0.0416 -0.1146
    1DIPC   D3A29023  22.764  19.751   3.749  0.0566 -0.1839  0.3046
    1DIPC   C4A29024  22.989  19.829   4.008 -0.2185 -0.0823 -0.0976
    1DIPC   C1B29025  23.502  20.107   3.099 -0.1025 -0.2242  0.2104
    1DIPC   D2B29026  23.509  19.644   3.214  0.0166 -0.0224 -0.2929
    1DIPC   D3B29027  23.712  19.719   3.595  0.0300 -0.1217 -0.0452
    1DIPC   C4B29028  23.494  19.634   3.880 -0.1720 -0.0390 -0.0038
    1DIPC   NC329029  23.013  13.393   2.176 -0.0948 -0.0355  0.0950
    1DIPC   PO429030  22.796  12.890   2.124 -0.3900  0.1500  0.0591
    1DIPC   GL129031  22.869  12.769   2.526 -0.0432 -0.1662  0.0854
    1DIPC   GL229032  23.008  13.034   2.605  0.0763  0.0662  0.0036
    1DIPC   C1A29033  22.960  12.458   2.609  0.1859 -0.2262 -0.0958
    1DIPC   D2A29034  23.342  12.196   2.677  0.1723  0.1672  0.2130
    1DIPC   D3A29035  23.516  12.674   2.620 -0.0003  0.0013  0.0714
    1DIPC   C4A29036  23.612  13.052   2.811 -0.1101 -0.1662  0.0720
    1DIPC   C1B29037  22.990  13.284   2.934  0.1176  0.2547 -0.0693
    1DIPC   D2B29038  23.077  13.501   3.303 -0.2013  0.1165  0.1593
    1DIPC   D3B29039  23.161  13.073   3.367  0.1914 -0.4087 -0.3005
    1DIPC   C4B29040  23.190  12.846   2.994  0.0057  0.0520  0.0905
    1DIPC   NC329041  19.044   7.403   2.497  0.2226 -0.0021  0.1355
    1DIPC   PO429042  19.538   7.414   2.699  0.1059  0.0584 -0.0688
    1DIPC   GL129043  19.709   7.365   3.137 -0.0079 -0.1504 -0.1302
    1DIPC   GL229044  19.697   7.820   3.205 -0.0018  0.0472  0.0696
    1DIPC   C1A29045  20.033   7.409   3.442  0.1183 -0.1905 -0.4081
    1DIPC   D2A29046  20.065   7.425   3.924 -0.1155  0.1326 -0.1902
    1DIPC   D3A29047  20.008   7.444   4.335  0.0025  0.2636  0.1619
    1DIPC   C4A29048  20.131   7.068   4.625  0.1409 -0.1492 -0.0740
    1DIPC   C1B29049  19.881   8.000   3.500  0.0163  0.2396 -0.0079
    1DIPC   D2B29050  19.910   7.900   3.878  0.3223  0.0856  0.0823
    1DIPC   D3B29051  19.568   7.616   3.720 -0.1437 -0.0823  0.0389
    1DIPC   C4B29052  19.373   7.336   4.060 -0.1008  0.2250  0.0848
    1DIPC   NC329053   9.375  28.149   3.033  0.0374  0.2240 -0.0392
    1DIPC   PO429054   9.617  28.429   3.249 -0.2127 -0.2303 -0.1337
    1DIPC   GL129055   9.707  28.505   3.636 -0.0114 -0.0057  0.1134
    1DIPC   GL229056   9.775  28.732   3.664 -0.1904  0.1922 -0.0565
    1DIPC   C1A29057   9.825  28.173   3.965 -0.1991 -0.1700 -0.0169
    1DIPC   D2A29058   9.732  27.759   3.957  0.0121 -0.0967  0.0157
    1DIPC   D3A29059   9.782  27.822   4.391  0.1730  0.1092  0.2335
    1DIPC   C4A29060   9.492  27.664   4.667 -0.1488  0.1034  0.3195
    1DIPC   C1B29061   9.739  28.676   4.129  0.0747 -0.0227 -0.1128
    1DIPC   D2B29062   9.875  28.368   4.461  0.0224 -0.3586  0.0940
    1DIPC   D3B29063  10.045  28.344   4.832 -0.0391  0.1069  0.2502
    1DIPC   C4B29064  10.267  27.948   4.708 -0.1322  0.0397  0.4163
    1DIPC   NC329065  20.478  12.317   2.219 -0.2722 -0.2245 -0.0821
    1DIPC   PO429066  20.535  12.445   2.717 -0.4151  0.1492 -0.1913
    1DIPC   GL129067  20.498  12.524   3.133  0.0521  0.1361  0.1224
    1DIPC   GL229068  20.307  12.326   3.195 -0.1163 -0.0727 -0.1306
    1DIPC   C1A29069  20.800  12.516   3.441 -0.3203  0.1782 -0.1666
    1DIPC   D2A29070  20.931  12.477   3.813  0.1107 -0.1656 -0.0817
    1DIPC   D3A29071  21.153  12.449   4.055 -0.0933  0.0507 -0.1506
    1DIPC   C4A29072  21.214  12.838   4.091 -0.0868  0.1349  0.1642
    1DIPC   C1B29073  20.380  12.461   3.683  0.1795  0.0471  0.0196
    1DIPC   D2B29074  20.483  12.740   3.917 -0.1072 -0.0289 -0.0646
    1DIPC   D3B29075  20.068  12.495   4.154  0.1539 -0.0002  0.1266
    1DIPC   C4B29076  19.898  12.404   4.569 -0.2390  0.0261 -0.0676
    1DIPC   NC329077  21.597  14.629   2.206  0.0634  0.0933 -0.0957
    1DIPC   PO429078  21.550  15.064   2.451 -0.0942  0.3623 -0.2720
    1DIPC   GL129079  21.567  15.284   2.910 -0.2274 -0.0931 -0.1433
    1DIPC   GL229080  21.212  15.410   2.911 -0.0026 -0.4863 -0.2134
    1DIPC   C1A29081  21.485  15.624   3.360  0.2155  0.2334  0.2497
    1DIPC   D2A29082  21.594  15.884   3.643 -0.0518 -0.5075 -0.0946
    1DIPC   D3A29083  21.320  16.021   3.939 -0.0434  0.1334 -0.0463
    1DIPC   C4A29084  21.226  15.680   4.029 -0.0303  0.1205 -0.1502
    1DIPC   C1B29085  20.809  15.229   3.231 -0.2484  0.3091  0.1453
    1DIPC   D2B29086  20.400  15.228   3.289  0.0511 -0.1413 -0.1935
    1DIPC   D3B29087  20.406  15.622   3.275 -0.1296  0.4012 -0.0643
    1DIPC   C4B29088  20.384  15.893   3.684  0.1982 -0.0881  0.1297
    1DIPC   NC329089  14.494  28.132   2.776 -0.0919 -0.0882 -0.1487
    1DIPC   PO429090  14.205  28.308   3.057  0.0748 -0.1960 -0.0797
    1DIPC   GL129091  14.159  28.338   3.577  0.2834 -0.3386 -0.0072
    1DIPC   GL229092  14.047  28.059   3.664 -0.0421  0.0186 -0.0177
    1DIPC   C1A29093  14.206  28.521   3.991  0.1288 -0.3188  0.2119
    1DIPC   D2A29094  14.524  28.322   4.374 -0.1096 -0.2495 -0.1122
    1DIPC   D3A29095  14.739  28.794   4.473  0.1951  0.0138 -0.2296
    1DIPC   C4A29096  14.384  29.158   4.425 -0.0286 -0.0012  0.3781
    1DIPC   C1B29097  13.837  28.129   4.053  0.3667 -0.1768  0.0067
    1DIPC   D2B29098  13.767  27.858   4.335 -0.0443  0.1428  0.0243
    1DIPC   D3B29099  13.708  27.905   4.701  0.1603  0.3288  0.2737
    1DIPC   C4B29100  14.022  27.759   4.997  0.1985  0.1058 -0.0692
    1DIPC   NC329101  13.256  13.422   3.137  0.2450 -0.1557 -0.1437
    1DIPC   PO429102  12.845  13.599   3.362  0.1549 -0.2933  0.0792
    1DIPC   GL129103  12.856  13.705   3.724  0.2937 -0.1401  0.0492
    1DIPC   GL229104  12.840  13.502   4.002 -0.1450  0.0601  0.1515
    1DIPC   C1A29105  12.952  13.981   4.051 -0.0098 -0.1228 -0.0892
    1DIPC   D2A29106  12.919  14.241   4.356 -0.2059  0.1257  0.0652
    1DIPC   D3A29107  13.088  14.680   4.137 -0.0123  0.0954  0.0060
    1DIPC   C4A29108  13.573  14.715   4.190 -0.3013  0.0688  0.1538
    1DIPC   C1B29109  12.724  13.624   4.426  0.1825  0.1166 -0.1944
    1DIPC   D2B29110  12.686  13.914   4.651  0.0665  0.1739  0.1255
    1DIPC   D3B29111  12.628  13.792   5.037  0.0857  0.0565  0.0211
    1DIPC   C4B29112  12.681  13.454   5.203 -0.0037  0.2122 -0.2262
    1DIPC   NC329113  20.773  20.181   1.143  0.0357  0.0183 -0.0525
    1DIPC   PO429114  20.830  20.102   1.679 -0.0173 -0.2379 -0.3225
    1DIPC   GL129115  20.953  20.174   2.142 -0.0806 -0.0170 -0.0991
    1DIPC   GL229116  21.087  20.383   2.377  0.0115  0.0508  0.1536
    1DIPC   C1A29117  20.613  20.224   2.457  0.0745  0.0698  0.0553
    1DIPC   D2A29118  20.561  20.067   3.019  0.0129  0.1160  0.0862
    1DIPC   D3A29119  20.652  20.373   3.328  0.0750 -0.0271 -0.2291
    1DIPC   C4A29120  21.016  20.120   3.301  0.3004 -0.2139 -0.1615
    1DIPC   C1B29121  21.317  20.456   2.728  0.2048  0.0010  0.1393
    1DIPC   D2B29122  21.395  20.309   3.047 -0.1672 -0.0406 -0.0919
    1DIPC   D3B29123  21.519  20.225   3.587  0.3926 -0.0067 -0.2662
    1DIPC   C4B29124  21.198  20.230   3.929 -0.0362  0.2104  0.0957
    1DIPC   NC329125   4.347  25.620   2.896 -0.1072 -0.1100  0.1509
    1DIPC   PO429126   4.595  25.796   3.108  0.2211 -0.0900  0.0768
    1DIPC   GL129127   4.544  25.754   3.524  0.0304 -0.4409  0.1218
    1DIPC   GL229128   4.390  26.021   3.632 -0.0154  0.3360  0.0457
    1DIPC   C1A29129   4.545  25.446   3.782  0.0464  0.0086  0.2101
    1DIPC   D2A29130   4.469  25.500   4.237 -0.1483 -0.0637 -0.1910
    1DIPC   D3A29131   4.659  25.601   4.529 -0.1528 -0.1447  0.2218
    1DIPC   C4A29132   5.120  25.262   4.445  0.3782  0.3159  0.1068
    1DIPC   C1B29133   4.368  25.918   3.991  0.1005  0.0398 -0.0153
    1DIPC   D2B29134   4.672  26.060   4.342  0.0451  0.2520  0.2081
    1DIPC   D3B29135   4.961  26.435   4.219  0.0486 -0.0270 -0.0115
    1DIPC   C4B29136   4.815  26.653   3.784  0.0308 -0.0357 -0.0314
    1DIPC   NC329137  12.260   0.192   3.395 -0.0145  0.2017  0.2163
    1DIPC   PO429138  11.984   0.300   3.117  0.0003 -0.2151  0.2042
    1DIPC   GL129139  11.980   0.647   3.481  0.2325  0.0030 -0.0058
    1DIPC   GL229140  12.301   0.737   3.667  0.1813 -0.1083  0.2879
    1DIPC   C1A29141  11.814   0.826   3.885  0.0520  0.0435 -0.0076
    1DIPC   D2A29142  12.118   0.774   4.201 -0.0283 -0.0536 -0.1206
    1DIPC   D3A29143  12.524   0.849   4.134  0.3314 -0.2690 -0.1245
    1DIPC   C4A29144  12.671   1.330   4.151  0.1453  0.0035 -0.1663
    1DIPC   C1B29145  12.496   1.060   3.693  0.0065  0.0256  0.0763
    1DIPC   D2B29146  12.911   1.319   3.665 -0.0324  0.0450  0.1157
    1DIPC   D3B29147  13.179   1.287   3.958 -0.0457  0.1762 -0.1039
    1DIPC   C4B29148  13.258   1.370   4.451  0.0448  0.2112 -0.1128
    1DIPC   NC329149  21.169   7.469   2.886 -0.4227  0.2343  0.2101
    1DIPC   PO429150  21.594   7.534   2.715 -0.2215 -0.1048 -0.1709
    1DIPC   GL129151  21.617   7.381   3.193 -0.1727 -0.1350 -0.1555
    1DIPC   GL229152  21.394   7.165   3.255 -0.2465 -0.3834  0.1354
    1DIPC   C1A29153  21.692   7.492   3.688  0.1043 -0.1377 -0.1711
    1DIPC   D2A29154  21.737   7.521   4.150  0.1082  0.3026 -0.3035
    1DIPC   D3A29155  21.987   7.532   4.441 -0.1641 -0.1475 -0.1114
    1DIPC   C4A29156  22.256   7.175   4.719  0.0097 -0.4220 -0.0159
    1DIPC   C1B29157  21.169   7.456   3.584  0.0585  0.0897  0.0317
    1DIPC   D2B29158  20.942   7.255   3.979  0.0459  0.2680  0.0128
    1DIPC   D3B29159  21.217   7.540   4.150 -0.2108 -0.0776  0.1942
    1DIPC   C4B29160  21.469   7.911   3.857 -0.1870 -0.2871  0.0771
    1DIPC   NC329161  19.444   7.134   2.293 -0.3129  0.0675  0.0777
    1DIPC   PO429162  19.163   6.835   2.560 -0.1493 -0.0596  0.0884
    1DIPC   GL129163  19.187   6.662   2.928 -0.3561 -0.2539 -0.2795
    1DIPC   GL229164  19.096   6.334   3.037  0.3289  0.1459 -0.2244
    1DIPC   C1A29165  19.517   6.492   3.235 -0.0441 -0.1907 -0.0103
    1DIPC   D2A29166  19.540   6.627   3.663  0.2109 -0.1177 -0.0291
    1DIPC   D3A29167  19.264   6.834   3.948 -0.0983 -0.4750  0.0891
    1DIPC   C4A29168  18.896   6.639   4.122  0.3498  0.2021 -0.2383
    1DIPC   C1B29169  19.053   6.504   3.405  0.2635  0.1324 -0.0430
    1DIPC   D2B29170  19.178   6.365   3.831 -0.2858 -0.1810  0.2493
    1DIPC   D3B29171  19.040   6.078   4.020  0.1864  0.1654 -0.1576
    1DIPC   C4B29172  18.555   5.840   4.040 -0.2476 -0.0656 -0.1819
    1DIPC   NC329173  12.369  19.373   2.126  0.1655  0.0246  0.1274
    1DIPC   PO429174  12.678  19.611   2.078 -0.1192 -0.1944  0.0731
    1DIPC   GL129175  12.761  19.691   2.607  0.2132  0.3301 -0.1954
    1DIPC   GL229176  12.999  19.906   2.783 -0.2319 -0.1917 -0.2587
    1DIPC   C1A29177  12.649  19.725   3.119  0.0255  0.0078 -0.1072
    1DIPC   D2A29178  12.443  19.913   3.475  0.5770  0.3996 -0.0457
    1DIPC   D3A29179  12.317  19.641   3.745  0.0275 -0.3968  0.1008
    1DIPC   C4A29180  12.184  19.267   3.752  0.1609  0.0730  0.1450
    1DIPC   C1B29181  12.681  20.233   2.879 -0.2009  0.2665  0.2089
    1DIPC   D2B29182  12.542  20.566   2.707  0.1951 -0.0736 -0.0074
    1DIPC   D3B29183  12.332  20.574   3.141 -0.1532  0.3234  0.3864
    1DIPC   C4B29184  12.228  20.353   3.431  0.0135  0.1804 -0.0314
    1DIPC   NC329185  18.083  23.776   2.499 -0.2733 -0.2352 -0.1369
    1DIPC   PO429186  18.050  23.323   2.508  0.0928 -0.0691 -0.0105
    1DIPC   GL129187  18.214  23.419   2.916 -0.2222  0.0086  0.1637
    1DIPC   GL229188  17.932  23.559   2.994 -0.0610 -0.3895  0.1121
    1DIPC   C1A29189  18.273  23.387   3.396  0.0240  0.1572  0.3489
    1DIPC   D2A29190  18.089  23.351   3.773 -0.1574 -0.0195  0.1956
    1DIPC   D3A29191  18.342  23.592   4.015 -0.2564  0.1125 -0.1792
    1DIPC   C4A29192  18.617  23.424   4.303  0.1316  0.2809  0.1924
    1DIPC   C1B29193  17.720  23.747   3.390 -0.1929  0.2056  0.3294
    1DIPC   D2B29194  17.961  23.820   3.730  0.2597 -0.2197 -0.1549
    1DIPC   D3B29195  17.804  23.724   4.032 -0.0085  0.0544  0.1180
    1DIPC   C4B29196  17.592  24.076   4.377 -0.3109 -0.3842  0.2889
    1DIPC   NC329197  20.524   3.449   2.832  0.0217 -0.0702  0.4060
    1DIPC   PO429198  20.222   3.201   2.945 -0.1658 -0.0100 -0.1097
    1DIPC   GL129199  20.192   3.242   3.368  0.0737 -0.0717  0.0269
    1DIPC   GL229200  20.396   3.156   3.591 -0.0353  0.0622 -0.1863
    1DIPC   C1A29201  19.905   3.368   3.645  0.0469 -0.3280  0.4365
    1DIPC   D2A29202  19.810   3.285   4.100  0.1152 -0.2490  0.3947
    1DIPC   D3A29203  19.692   3.527   4.496 -0.0549 -0.2995 -0.0183
    1DIPC   C4A29204  19.350   3.796   4.493  0.3203 -0.0195 -0.0609
    1DIPC   C1B29205  20.260   3.153   4.067 -0.0372  0.1736  0.0105
    1DIPC   D2B29206  20.115   2.996   4.379 -0.2131  0.1022 -0.0551
    1DIPC   D3B29207  20.029   3.308   4.783  0.2602  0.2664  0.1749
    1DIPC   C4B29208  20.095   3.245   5.203 -0.1663  0.2589 -0.1991
    1DIPC   NC329209  17.315   6.906   2.059 -0.0131  0.1910  0.0035
    1DIPC   PO429210  17.396   7.323   2.068 -0.1917  0.3819  0.0577
    1DIPC   GL129211  17.249   7.139   2.501 -0.1709 -0.0799  0.1231
    1DIPC   GL229212  17.422   7.303   2.793  0.2441 -0.2339 -0.1400
    1DIPC   C1A29213  16.981   7.170   2.997 -0.2710  0.1763 -0.2009
    1DIPC   D2A29214  16.614   7.067   3.305 -0.2373 -0.3466 -0.4826
    1DIPC   D3A29215  16.352   7.586   3.309  0.0198  0.0573 -0.1894
    1DIPC   C4A29216  15.909   7.500   3.234 -0.1045 -0.0927  0.2052
    1DIPC   C1B29217  17.485   7.399   3.162 -0.2576  0.1293  0.2968
    1DIPC   D2B29218  17.325   7.215   3.602 -0.4042  0.0845  0.2329
    1DIPC   D3B29219  17.136   7.510   3.966  0.4468 -0.1620 -0.4253
    1DIPC   C4B29220  17.128   7.874   3.889  0.1143  0.5087  0.1736
    1DIPC   NC329221   6.177  27.093   2.771 -0.3582 -0.2484  0.2349
    1DIPC   PO429222   6.143  26.794   3.092  0.2970  0.0224 -0.2605
    1DIPC   GL129223   5.964  26.829   3.465  0.1100 -0.0678 -0.1788
    1DIPC   GL229224   6.110  26.692   3.746  0.0009  0.0337  0.0298
    1DIPC   C1A29225   5.680  26.919   3.803  0.1177 -0.2667 -0.1039
    1DIPC   D2A29226   5.708  27.047   4.196 -0.0412 -0.0869 -0.0278
    1DIPC   D3A29227   6.143  27.140   3.880  0.3307 -0.0387 -0.1060
    1DIPC   C4A29228   6.225  27.537   3.950 -0.0968 -0.4050 -0.0614
    1DIPC   C1B29229   6.062  26.664   4.067  0.1559 -0.1126  0.2658
    1DIPC   D2B29230   6.078  26.715   4.556 -0.1845  0.3043 -0.1482
    1DIPC   D3B29231   5.875  26.414   4.627  0.1011  0.2898 -0.2214
    1DIPC   C4B29232   5.611  26.380   4.969 -0.1807 -0.0336  0.1605
    1DIPC   NC329233  12.772  15.690   3.070  0.1257 -0.0051 -0.0077
    1DIPC   PO429234  12.922  15.242   3.135  0.0057  0.1443  0.0081
    1DIPC   GL129235  12.719  14.992   3.384  0.0264 -0.3241 -0.1307
    1DIPC   GL229236  12.799  15.047   3.666 -0.0688  0.1692 -0.1517
    1DIPC   C1A29237  12.297  14.861   3.579 -0.0117  0.1199 -0.1443
    1DIPC   D2A29238  11.936  14.614   3.845 -0.0607 -0.1321 -0.2618
    1DIPC   D3A29239  11.725  14.932   3.972  0.1618 -0.3205 -0.0653
    1DIPC   C4A29240  11.267  15.141   3.880 -0.2120  0.1073 -0.0835
    1DIPC   C1B29241  12.592  15.082   4.084 -0.1896  0.0280  0.2383
    1DIPC   D2B29242  12.199  15.248   4.283  0.0755  0.0562 -0.0862
    1DIPC   D3B29243  12.451  15.127   4.610 -0.1526 -0.0913 -0.0821
    1DIPC   C4B29244  12.829  14.909   4.577 -0.1471 -0.1435 -0.0538
    1DIPC   NC329245  15.995   1.364   2.505  0.2626 -0.1982  0.0520
    1DIPC   PO429246  15.909   0.990   2.386  0.0603 -0.0269  0.1449
    1DIPC   GL129247  15.690   0.991   2.847 -0.1308 -0.0215 -0.1262
    1DIPC   GL229248  15.972   0.881   2.968  0.3146 -0.0435 -0.0362
    1DIPC   C1A29249  15.499   1.100   3.204 -0.0181 -0.3545 -0.0217
    1DIPC   D2A29250  15.441   1.121   3.600 -0.2278  0.1018  0.0213
    1DIPC   D3A29251  15.576   1.219   4.091  0.1051 -0.2692  0.0053
    1DIPC   C4A29252  15.217   1.426   4.268 -0.0178 -0.0797  0.3624
    1DIPC   C1B29253  16.064   1.156   3.302  0.0328  0.0183 -0.0963
    1DIPC   D2B29254  16.127   1.253   3.775 -0.4042 -0.0859  0.2487
    1DIPC   D3B29255  15.920   1.654   3.904  0.0079  0.0012  0.0288
    1DIPC   C4B29256  16.151   2.045   4.099  0.2932  0.1764 -0.0331
    1DIPC   NC329257  16.898   8.477   2.366  0.1890 -0.0098  0.0727
    1DIPC   PO429258  17.223   8.779   2.497  0.1017 -0.0388  0.1089
    1DIPC   GL129259  17.542   8.813   2.853  0.0147 -0.1922 -0.0282
    1DIPC   GL229260  17.463   8.881   3.202 -0.3528 -0.1595 -0.0234
    1DIPC   C1A29261  17.856   8.436   2.925  0.0335 -0.0226  0.1703
    1DIPC   D2A29262  18.169   8.208   3.111  0.1082  0.2648  0.1358
    1DIPC   D3A29263  17.751   7.889   3.204  0.3096  0.2343  0.2884
    1DIPC   C4A29264  17.477   7.750   3.586 -0.0221  0.0691  0.0191
    1DIPC   C1B29265  17.415   9.080   3.614  0.0417  0.1708 -0.0372
    1DIPC   D2B29266  17.482   9.617   3.657 -0.0515 -0.2293 -0.3814
    1DIPC   D3B29267  17.595   9.734   4.069  0.3325 -0.1685 -0.1924
    1DIPC   C4B29268  17.307   9.784   4.474 -0.1609 -0.1123 -0.1886
    1DIPC   NC329269  20.058  18.630   2.029 -0.1065 -0.0899 -0.0403
    1DIPC   PO429270  20.257  18.270   1.973 -0.1188  0.2160  0.3309
    1DIPC   GL129271  20.436  18.346   2.385 -0.0843  0.1292  0.1105
    1DIPC   GL229272  20.515  18.176   2.564 -0.0984 -0.2257  0.3305
    1DIPC   C1A29273  20.411  18.670   2.709  0.1019  0.1554 -0.0922
    1DIPC   D2A29274  20.387  18.835   3.103  0.0877 -0.3251  0.1737
    1DIPC   D3A29275  20.484  19.302   3.113 -0.1301  0.1781  0.2511
    1DIPC   C4A29276  20.364  19.613   3.227 -0.2598  0.0754  0.5978
    1DIPC   C1B29277  20.287  18.213   2.893  0.0392  0.2228  0.0733
    1DIPC   D2B29278  20.140  18.477   3.177 -0.0064  0.2103 -0.1074
    1DIPC   D3B29279  20.588  18.536   3.454 -0.2041 -0.4250 -0.0447
    1DIPC   C4B29280  21.019  18.304   3.344  0.0031 -0.0468 -0.1184
    1DIPC   NC329281  22.779  24.826   2.769 -0.2896  0.1310  0.0732
    1DIPC   PO429282  23.186  24.636   2.786 -0.2328 -0.1455  0.0686
    1DIPC   GL129283  23.148  24.638   3.275  0.1579 -0.4449 -0.0238
    1DIPC   GL229284  23.262  24.389   3.317 -0.1511  0.1787 -0.0267
    1DIPC   C1A29285  23.199  24.981   3.645 -0.0874 -0.0389  0.2014
    1DIPC   D2A29286  23.253  25.189   3.986 -0.0672  0.2233 -0.1697
    1DIPC   D3A29287  23.018  25.067   4.301 -0.3397  0.0706  0.3318
    1DIPC   C4A29288  23.165  25.078   4.709 -0.0577 -0.1006 -0.0674
    1DIPC   C1B29289  23.207  24.294   3.699  0.0198 -0.2053  0.2210
    1DIPC   D2B29290  23.101  24.070   3.986  0.1918 -0.1368  0.1339
    1DIPC   D3B29291  23.115  24.113   4.365  0.0973 -0.2344  0.2808
    1DIPC   C4B29292  23.468  24.195   4.687 -0.1234  0.1612  0.2261
    1DIPC   NC329293  25.657   2.409   3.614  0.1148  0.1916  0.1140
    1DIPC   PO429294  25.834   2.050   3.523  0.0250 -0.1152 -0.3442
    1DIPC   GL129295  25.827   2.098   3.978  0.1874  0.0043  0.0685
    1DIPC   GL229296  25.983   2.326   4.084  0.0262 -0.2750  0.2377
    1DIPC   C1A29297  25.973   1.972   4.505  0.3480 -0.0486  0.3262
    1DIPC   D2A29298  26.003   1.829   4.928  0.2398  0.3624  0.0393
    1DIPC   D3A29299  25.664   1.621   5.046 -0.2350 -0.1496  0.1359
    1DIPC   C4A29300  25.605   1.625   5.538 -0.0756 -0.3656  0.4018
    1DIPC   C1B29301  25.868   2.778   4.207 -0.2280 -0.1326  0.0844
    1DIPC   D2B29302  25.974   3.130   4.292  0.2225 -0.0593  0.0968
    1DIPC   D3B29303  26.343   3.253   4.463 -0.0128  0.1643  0.1160
    1DIPC   C4B29304  26.758   3.084   4.613 -0.1203  0.0798  0.3606
    1DIPC   NC329305   1.989   6.231   2.560  0.2135 -0.2484  0.0900
    1DIPC   PO429306   2.234   6.234   2.993  0.2551  0.2113  0.1934
    1DIPC   GL129307   2.571   6.505   3.161 -0.0122 -0.1233  0.1039
    1DIPC   GL229308   2.775   6.729   3.075 -0.1216  0.3344 -0.1354
    1DIPC   C1A29309   2.736   6.548   3.493 -0.3493  0.3850  0.2744
    1DIPC   D2A29310   2.870   6.363   3.918  0.1432  0.0304  0.0954
    1DIPC   D3A29311   2.693   6.640   4.262  0.0338 -0.1277  0.2286
    1DIPC   C4A29312   2.263   6.671   4.318  0.4121  0.0803 -0.0660
    1DIPC   C1B29313   2.860   7.024   3.323 -0.1241 -0.2148 -0.2031
    1DIPC   D2B29314   2.541   7.399   3.612 -0.1933  0.2395  0.0943
    1DIPC   D3B29315   2.564   7.338   4.084 -0.0530  0.1404  0.1086
    1DIPC   C4B29316   2.589   7.221   4.483 -0.0181 -0.0915 -0.0999
    1DIPC   NC329317  26.697   3.756   3.691  0.1721 -0.1581  0.2045
    1DIPC   PO429318  26.577   3.582   4.121  0.0190 -0.0582 -0.0304
    1DIPC   GL129319  26.807   3.772   4.482  0.2449 -0.0519 -0.0664
    1DIPC   GL229320  26.764   4.038   4.606 -0.1166  0.2181 -0.0943
    1DIPC   C1A29321  27.095   3.511   4.684 -0.0397 -0.1621 -0.0280
    1DIPC   D2A29322  27.116   3.351   4.975 -0.1454 -0.0904 -0.2215
    1DIPC   D3A29323  27.458   3.479   5.308  0.0004 -0.2489  0.0931
    1DIPC   C4A29324  27.345   3.738   5.605 -0.1061  0.2179 -0.2284
    1DIPC   C1B29325  26.663   4.374   4.867  0.0469  0.2082  0.2796
    1DIPC   D2B29326  26.395   4.711   5.094  0.1525 -0.1839 -0.1384
    1DIPC   D3B29327  26.539   4.433   5.413  0.1656  0.3551  0.1112
    1DIPC   C4B29328  26.378   4.041   5.560 -0.1385 -0.0246 -0.2354
    1DIPC   NC329329  18.249   4.863   2.365 -0.1876  0.3344  0.2429
    1DIPC   PO429330  18.437   5.116   2.594 -0.1963 -0.4929  0.0523
    1DIPC   GL129331  18.227   5.071   2.913 -0.4139 -0.1112 -0.3084
    1DIPC   GL229332  18.127   4.793   2.908  0.1725 -0.0240  0.1603
    1DIPC   C1A29333  18.203   5.307   3.412  0.1284  0.0949 -0.0684
    1DIPC   D2A29334  18.377   5.062   3.791  0.2737  0.1790 -0.2441
    1DIPC   D3A29335  18.744   4.893   3.688 -0.1701  0.2687 -0.0183
    1DIPC   C4A29336  19.044   4.900   3.976 -0.1360  0.2503 -0.1149
    1DIPC   C1B29337  17.765   5.041   3.090  0.2298  0.5020 -0.1064
    1DIPC   D2B29338  17.622   5.193   3.404 -0.0128  0.2183 -0.0793
    1DIPC   D3B29339  17.471   5.025   3.797 -0.2901  0.0955  0.2915
    1DIPC   C4B29340  17.677   4.621   3.959  0.0504  0.2452  0.2193
    1DIPC   NC329341  23.160  14.860   2.422  0.2967 -0.1662  0.1733
    1DIPC   PO429342  22.766  14.940   2.190  0.2159  0.1704  0.0537
    1DIPC   GL129343  22.715  14.711   2.577  0.2115 -0.0049  0.3220
    1DIPC   GL229344  22.495  14.596   2.717 -0.0860 -0.0762  0.4487
    1DIPC   C1A29345  22.843  14.776   2.982  0.2403  0.1060  0.0372
    1DIPC   D2A29346  22.880  14.892   3.479 -0.3154  0.0625 -0.0738
    1DIPC   D3A29347  23.352  14.847   3.318  0.0758  0.0474 -0.0637
    1DIPC   C4A29348  23.416  14.714   2.995  0.1271 -0.0361  0.1280
    1DIPC   C1B29349  22.259  14.727   3.119 -0.3283  0.0879 -0.1457
    1DIPC   D2B29350  22.140  14.794   3.600 -0.0723 -0.2414  0.1607
    1DIPC   D3B29351  22.135  14.956   4.048 -0.1093  0.0918  0.2182
    1DIPC   C4B29352  21.906  14.585   4.280 -0.0345  0.0895  0.2019
    1DIPC   NC329353  19.406  22.715   1.623 -0.1006 -0.0932 -0.0607
    1DIPC   PO429354  19.388  22.843   2.060  0.2309  0.1542  0.2692
    1DIPC   GL129355  19.406  22.880   2.563 -0.1623  0.1915 -0.0175
    1DIPC   GL229356  19.336  22.671   2.771  0.0338  0.1456 -0.1520
    1DIPC   C1A29357  19.146  23.131   2.771  0.3840 -0.0525 -0.0139
    1DIPC   D2A29358  18.851  23.104   3.110 -0.1858  0.3002  0.1835
    1DIPC   D3A29359  18.627  23.472   3.116 -0.0117 -0.0595  0.3885
    1DIPC   C4A29360  18.575  23.886   3.398  0.2580  0.0650  0.1210
    1DIPC   C1B29361  19.539  22.286   3.081  0.3358 -0.1717 -0.3069
    1DIPC   D2B29362  19.942  22.188   3.076  0.2094  0.0556 -0.0195
    1DIPC   D3B29363  20.123  22.352   2.702 -0.1098  0.3629  0.1505
    1DIPC   C4B29364  20.562  22.381   2.836 -0.0948  0.0314  0.0741
    1DIPC   NC329365  23.762  16.505   1.857 -0.0654  0.1744  0.1094
    1DIPC   PO429366  23.296  16.699   1.940 -0.0227  0.0776  0.0245
    1DIPC   GL129367  23.477  16.826   2.337 -0.2413  0.0617  0.0065
    1DIPC   GL229368  23.865  16.757   2.354 -0.0528  0.1072 -0.1750
    1DIPC   C1A29369  23.419  16.907   2.681 -0.1564 -0.2637 -0.0679
    1DIPC   D2A29370  23.228  16.937   3.195 -0.1266 -0.1341 -0.2075
    1DIPC   D3A29371  23.397  17.375   3.377  0.0356 -0.3037  0.1120
    1DIPC   C4A29372  23.448  17.485   3.778 -0.0747  0.1935  0.2765
    1DIPC   C1B29373  23.639  16.499   2.662 -0.0227  0.2867  0.1555
    1DIPC   D2B29374  23.586  16.485   3.168  0.0944  0.1077  0.0587
    1DIPC   D3B29375  23.727  16.948   3.028 -0.0631  0.0799 -0.3030
    1DIPC   C4B29376  23.613  17.317   2.939 -0.1868 -0.0693 -0.0455
    1DIPC   NC329377  26.079  21.213   2.196 -0.3332  0.0153 -0.0646
    1DIPC   PO429378  25.908  21.647   2.022  0.0655 -0.0267  0.2776
    1DIPC   GL129379  25.773  21.442   2.460 -0.2643  0.0354  0.1781
    1DIPC   GL229380  25.889  21.221   2.753  0.3067  0.0329  0.0500
    1DIPC   C1A29381  25.352  21.415   2.801 -0.0208  0.0542  0.2647
    1DIPC   D2A29382  25.304  21.209   3.242  0.2712  0.3231 -0.1504
    1DIPC   D3A29383  25.386  20.885   3.409 -0.0704  0.0796 -0.0178
    1DIPC   C4A29384  25.299  20.685   3.838 -0.0770  0.1106  0.0529
    1DIPC   C1B29385  25.768  21.341   3.182 -0.1120  0.0403  0.0155
    1DIPC   D2B29386  25.522  21.624   3.320 -0.1044 -0.1281  0.0537
    1DIPC   D3B29387  25.564  21.494   3.694  0.0910 -0.3245  0.0563
    1DIPC   C4B29388  25.229  21.153   3.760  0.0687  0.0927  0.1293
    1DIPC   NC329389   0.338   4.451   2.799  0.2547  0.0246 -0.2245
    1DIPC   PO429390   0.039   4.239   3.134  0.0063  0.0439 -0.1448
    1DIPC   GL129391   0.006   4.577   3.481  0.0884 -0.1236 -0.0363
    1DIPC   GL229392  30.086   4.631   3.672 -0.1469  0.0331  0.0694
    1DIPC   C1A29393   0.236   4.765   3.779 -0.2910 -0.2304 -0.3615
    1DIPC   D2A29394   0.223   4.939   4.185 -0.0684  0.1759 -0.1917
    1DIPC   D3A29395   0.251   4.778   4.600 -0.0976  0.0687 -0.1126
    1DIPC   C4A29396   0.441   4.734   5.001  0.0227  0.2867  0.1242
    1DIPC   C1B29397  30.140   4.570   4.070 -0.1192  0.1169 -0.0990
    1DIPC   D2B29398  30.223   4.425   4.485  0.1549 -0.1614 -0.0696
    1DIPC   D3B29399  30.065   4.081   4.887 -0.2225  0.0223 -0.2880
    1DIPC   C4B29400  30.064   3.611   4.777 -0.2808  0.1877  0.0865
    1DIPC   NC329401  10.273  21.714   2.151  0.0675 -0.1398 -0.1198
    1DIPC   PO429402  10.766  21.852   2.119 -0.0115 -0.1143  0.0576
    1DIPC   GL129403  10.938  21.803   2.556  0.0937 -0.1465  0.1054
    1DIPC   GL229404  11.052  22.111   2.627  0.5728  0.1125  0.0881
    1DIPC   C1A29405  10.800  21.642   2.968 -0.0668 -0.1223 -0.3389
    1DIPC   D2A29406  10.635  21.192   3.223  0.0217  0.0938 -0.0054
    1DIPC   D3A29407  10.716  21.535   3.458 -0.1454  0.2051 -0.1031
    1DIPC   C4A29408  10.807  21.614   3.851 -0.0912 -0.0450  0.1022
    1DIPC   C1B29409  11.253  21.948   2.960 -0.1657  0.2482 -0.2642
    1DIPC   D2B29410  11.137  21.792   3.353  0.0458  0.0749 -0.1298
    1DIPC   D3B29411  10.778  22.060   3.585  0.2535 -0.1848 -0.0188
    1DIPC   C4B29412  10.381  21.955   3.893 -0.1630 -0.1795 -0.1093
    1DIPC   NC329413   6.876  29.706   2.988  0.0598 -0.2595  0.0752
    1DIPC   PO429414   7.034  29.329   2.990  0.0689 -0.0908 -0.1339
    1DIPC   GL129415   6.812  29.266   3.349  0.2768 -0.1112  0.0624
    1DIPC   GL229416   6.884  29.024   3.628 -0.2463  0.0083  0.3810
    1DIPC   C1A29417   6.783  29.470   3.762  0.2754 -0.2797 -0.3520
    1DIPC   D2A29418   6.804  29.452   4.205  0.3127  0.0759 -0.0434
    1DIPC   D3A29419   6.757  29.905   4.189 -0.0692  0.0671 -0.1336
    1DIPC   C4A29420   7.020  30.064   3.911 -0.1847  0.1028 -0.3586
    1DIPC   C1B29421   7.081  29.062   4.093  0.2224 -0.1735 -0.1002
    1DIPC   D2B29422   7.389  29.299   4.416 -0.1609 -0.0617  0.3067
    1DIPC   D3B29423   7.141  29.584   4.531  0.2031  0.0627 -0.0889
    1DIPC   C4B29424   7.233  30.038   4.451  0.1805  0.0720 -0.1521
    1DIPC   NC329425  26.725   5.532   3.265 -0.1035 -0.3401  0.1096
    1DIPC   PO429426  26.352   5.557   3.460  0.1391  0.0595  0.1635
    1DIPC   GL129427  26.332   5.634   3.899  0.5014 -0.3199  0.0469
    1DIPC   GL229428  26.176   5.384   4.002 -0.0967  0.1618  0.1195
    1DIPC   C1A29429  26.311   5.913   4.200  0.0379  0.0359 -0.1512
    1DIPC   D2A29430  26.276   6.175   4.534 -0.4289  0.1731 -0.4221
    1DIPC   D3A29431  26.283   6.613   4.583 -0.1882  0.0134  0.2577
    1DIPC   C4A29432  26.609   6.784   4.545 -0.0980  0.0427  0.1901
    1DIPC   C1B29433  26.400   5.424   4.386 -0.3708  0.0414 -0.2902
    1DIPC   D2B29434  26.239   5.647   4.755 -0.2208  0.0151 -0.0747
    1DIPC   D3B29435  25.794   5.783   5.087 -0.0503  0.3051 -0.1172
    1DIPC   C4B29436  25.306   5.914   5.187 -0.2303 -0.1056 -0.0094
    1DIPC   NC329437   6.464   1.293   3.630 -0.0316 -0.1606 -0.2229
    1DIPC   PO429438   6.807   1.555   3.648  0.2172  0.0582 -0.0866
    1DIPC   GL129439   6.677   1.156   4.022 -0.2341 -0.0635  0.0085
    1DIPC   GL229440   6.825   0.809   4.171  0.0219  0.1238 -0.2828
    1DIPC   C1A29441   6.391   0.982   4.351 -0.0851  0.2394 -0.0419
    1DIPC   D2A29442   6.174   1.221   4.676 -0.0693  0.0378 -0.2349
    1DIPC   D3A29443   6.371   1.589   4.852  0.1200  0.0144 -0.1467
    1DIPC   C4A29444   6.349   1.835   5.221  0.3435  0.3366  0.1069
    1DIPC   C1B29445   6.678   0.566   4.490  0.0087  0.1705 -0.0748
    1DIPC   D2B29446   6.521   0.284   4.728  0.0188  0.2144  0.2476
    1DIPC   D3B29447   6.706   0.558   5.022 -0.0822  0.0674 -0.2104
    1DIPC   C4B29448   6.872   0.364   5.438 -0.1637 -0.0298 -0.2453
    1DIPC   NC329449   6.544   9.447   2.137  0.0815 -0.0518  0.1307
    1DIPC   PO429450   6.266   9.333   2.472  0.0182  0.1771  0.2843
    1DIPC   GL129451   6.076   9.582   2.838 -0.2994  0.0302  0.1371
    1DIPC   GL229452   6.162   9.897   2.803  0.0297  0.1997  0.0464
    1DIPC   C1A29453   5.810   9.449   3.167  0.0022 -0.1102 -0.0550
    1DIPC   D2A29454   5.826   9.367   3.616  0.0495 -0.1726 -0.0664
    1DIPC   D3A29455   6.162   9.154   3.327 -0.0454  0.0830  0.0236
    1DIPC   C4A29456   6.537   8.951   3.637  0.2171 -0.3193 -0.1299
    1DIPC   C1B29457   6.176   9.809   3.240  0.1700 -0.0718 -0.1021
    1DIPC   D2B29458   6.294   9.739   3.696  0.2428 -0.2693  0.2421
    1DIPC   D3B29459   6.275   9.358   3.843  0.0976 -0.1239 -0.1059
    1DIPC   C4B29460   6.644   9.129   4.084  0.4253  0.0825 -0.1239
    1DIPC   NC329461  12.455  20.573   1.704 -0.1718 -0.0669 -0.1650
    1DIPC   PO429462  12.655  20.634   2.144  0.0205  0.0137 -0.1273
    1DIPC   GL129463  12.601  20.989   2.440 -0.1121 -0.1430  0.1035
    1DIPC   GL229464  12.821  21.032   2.687  0.0347 -0.3931  0.0449
    1DIPC   C1A29465  12.218  21.018   2.658 -0.0807  0.1856  0.1643
    1DIPC   D2A29466  11.896  20.852   2.936  0.2018 -0.1842 -0.1089
    1DIPC   D3A29467  11.897  20.739   3.425 -0.2269  0.1301 -0.0280
    1DIPC   C4A29468  11.573  20.879   3.672 -0.1048  0.2272 -0.1448
    1DIPC   C1B29469  12.593  21.003   3.015  0.0730  0.1921  0.0814
    1DIPC   D2B29470  12.259  21.026   3.345 -0.1436  0.2377  0.0500
    1DIPC   D3B29471  12.444  20.784   3.604 -0.2444 -0.3530  0.0906
    1DIPC   C4B29472  12.439  20.762   4.073 -0.2032  0.0710 -0.1951
    1DIPC   NC329473  25.868  29.373   3.814 -0.0818  0.0659 -0.0977
    1DIPC   PO429474  26.292  29.501   4.080 -0.1387  0.0857 -0.0633
    1DIPC   GL129475  26.192  29.760   4.434 -0.2135 -0.2779 -0.1788
    1DIPC   GL229476  25.958  29.908   4.538 -0.1834 -0.0313 -0.0049
    1DIPC   C1A29477  26.463  29.843   4.799  0.1599 -0.1671  0.2850
    1DIPC   D2A29478  26.805  30.159   4.872  0.0389 -0.1370 -0.1077
    1DIPC   D3A29479  26.431   0.024   4.714  0.0536  0.3006  0.0655
    1DIPC   C4A29480  26.304   0.343   4.875  0.1264 -0.2412 -0.2005
    1DIPC   C1B29481  25.674  29.890   4.750  0.1119 -0.0398  0.0124
    1DIPC   D2B29482  25.436  29.803   5.119 -0.1524  0.0332  0.1771
    1DIPC   D3B29483  25.618  29.440   5.042 -0.0310  0.4376  0.0001
    1DIPC   C4B29484  25.725  29.059   5.304 -0.1444  0.0546 -0.1907
    1DIPC   NC329485  12.041   7.951   2.365 -0.1354  0.5363 -0.1192
    1DIPC   PO429486  11.644   7.717   2.621 -0.0710 -0.1448  0.0756
    1DIPC   GL129487  11.665   7.530   3.016  0.1906 -0.0580 -0.1630
    1DIPC   GL229488  11.783   7.245   3.059 -0.2629 -0.0377 -0.0297
    1DIPC   C1A29489  11.708   7.642   3.454  0.2321  0.0016  0.3030
    1DIPC   D2A29490  11.675   7.411   3.913 -0.0698  0.1930 -0.0087
    1DIPC   D3A29491  11.243   7.292   3.810  0.2609  0.2632 -0.0696
    1DIPC   C4A29492  10.896   7.318   4.081  0.0470  0.2318 -0.3769
    1DIPC   C1B29493  11.706   7.109   3.436  0.1515  0.3137  0.0420
    1DIPC   D2B29494  11.482   6.733   3.615  0.0969 -0.0955  0.1469
    1DIPC   D3B29495  11.100   6.615   3.723  0.1716  0.2112 -0.0553
    1DIPC   C4B29496  10.925   6.324   4.062 -0.1831 -0.0221  0.2465
    1DIPC   NC329497   7.545  27.922   2.777  0.1009 -0.2402  0.0083
    1DIPC   PO429498   7.793  27.684   2.684  0.1770  0.0136  0.4921
    1DIPC   GL129499   7.952  27.674   3.099  0.4239 -0.2170  0.0729
    1DIPC   GL229500   7.922  27.298   3.213 -0.1628  0.0148 -0.2402
    1DIPC   C1A29501   8.190  27.621   3.492  0.1364 -0.2153 -0.3028
    1DIPC   D2A29502   8.400  27.272   3.795 -0.0020 -0.0366 -0.0570
    1DIPC   D3A29503   8.139  27.075   4.025  0.1068  0.0703  0.0822
    1DIPC   C4A29504   8.384  26.825   4.363  0.1312  0.1548  0.0837
    1DIPC   C1B29505   7.949  27.159   3.579  0.1781 -0.0950 -0.2368
    1DIPC   D2B29506   7.732  26.868   3.871 -0.1651  0.0721 -0.0945
    1DIPC   D3B29507   7.552  27.308   3.953  0.0053 -0.1232  0.4378
    1DIPC   C4B29508   7.125  27.481   3.930  0.1516  0.2191 -0.1760
    1DIPC   NC329509  12.492  17.283   2.233  0.2638 -0.4453 -0.1550
    1DIPC   PO429510  12.766  17.460   2.486  0.1698  0.2156  0.1618
    1DIPC   GL129511  12.715  17.784   2.668 -0.2503 -0.1335 -0.1038
    1DIPC   GL229512  12.764  17.713   3.005  0.2662  0.3184  0.0147
    1DIPC   C1A29513  12.584  18.210   2.596  0.0303  0.3141 -0.1997
    1DIPC   D2A29514  12.812  18.612   2.730  0.2907  0.0425 -0.0015
    1DIPC   D3A29515  12.728  18.583   3.234 -0.3373  0.1425  0.0649
    1DIPC   C4A29516  13.029  18.249   3.550 -0.1560 -0.2669 -0.2224
    1DIPC   C1B29517  12.661  18.059   3.139 -0.0868  0.0792 -0.1003
    1DIPC   D2B29518  12.562  17.993   3.564  0.1052 -0.0502 -0.3002
    1DIPC   D3B29519  12.618  18.430   3.778 -0.0369 -0.2214  0.2232
    1DIPC   C4B29520  12.429  18.903   3.566 -0.0498  0.1301 -0.1399
    1DIPC   NC329521  15.380   0.645   2.494  0.0311 -0.0302 -0.2094
    1DIPC   PO429522  15.028   0.785   2.232  0.2934 -0.0832  0.1139
    1DIPC   GL129523  14.944   1.011   2.639 -0.1302  0.0645 -0.0237
    1DIPC   GL229524  15.114   0.918   2.936  0.1527 -0.0450 -0.1445
    1DIPC   C1A29525  15.049   1.400   3.026 -0.0435 -0.0429 -0.0991
    1DIPC   D2A29526  15.122   1.682   3.416  0.2934  0.1140  0.3083
    1DIPC   D3A29527  14.684   1.561   3.313 -0.0350 -0.3553 -0.0078
    1DIPC   C4A29528  14.506   1.528   3.684 -0.1510  0.1554  0.1228
    1DIPC   C1B29529  15.160   0.709   3.279 -0.0326  0.0613 -0.0093
    1DIPC   D2B29530  14.951   0.514   3.638  0.0543  0.0193  0.1926
    1DIPC   D3B29531  14.865   0.705   4.014 -0.3059  0.3282  0.2567
    1DIPC   C4B29532  15.149   0.965   4.146 -0.1539  0.2622  0.1062
    1DIPC   NC329533  15.505   5.322   2.024 -0.1529  0.1148 -0.1837
    1DIPC   PO429534  15.736   5.663   1.701 -0.1565  0.1656 -0.1615
    1DIPC   GL129535  15.763   5.809   2.127  0.2031  0.5089  0.2434
    1DIPC   GL229536  15.522   5.966   2.241 -0.1847  0.0667 -0.0839
    1DIPC   C1A29537  16.005   5.860   2.538 -0.2182 -0.3889 -0.1587
    1DIPC   D2A29538  16.452   5.888   2.594  0.0145 -0.3345  0.0830
    1DIPC   D3A29539  16.499   5.514   2.802 -0.3148  0.2211  0.0756
    1DIPC   C4A29540  16.244   5.372   3.173 -0.1722 -0.2924  0.0750
    1DIPC   C1B29541  15.702   6.235   2.551  0.0473  0.0862  0.1286
    1DIPC   D2B29542  15.880   6.638   2.668  0.1909  0.2137  0.0739
    1DIPC   D3B29543  16.069   6.278   2.928  0.2003 -0.1089  0.2741
    1DIPC   C4B29544  16.098   6.210   3.342 -0.3545  0.2275 -0.0609
    1DIPC   NC329545   4.360   5.778   3.041 -0.1142  0.3036 -0.1107
    1DIPC   PO429546   4.289   5.476   3.340 -0.1390  0.2919 -0.0075
    1DIPC   GL129547   4.104   5.555   3.763  0.0298  0.1269  0.3429
    1DIPC   GL229548   3.795   5.510   3.818  0.1992  0.0088 -0.2933
    1DIPC   C1A29549   4.037   5.659   4.262  0.0318  0.0870 -0.1660
    1DIPC   D2A29550   4.118   5.683   4.718 -0.0745 -0.1502 -0.0526
    1DIPC   D3A29551   3.677   5.895   4.650 -0.0616  0.0333 -0.0427
    1DIPC   C4A29552   3.384   6.134   4.904 -0.0934  0.0411  0.0606
    1DIPC   C1B29553   3.593   5.737   4.090  0.0694 -0.3866 -0.1373
    1DIPC   D2B29554   3.241   5.836   4.374 -0.0900 -0.2156  0.0545
    1DIPC   D3B29555   3.262   5.569   4.776 -0.0277 -0.2689 -0.0653
    1DIPC   C4B29556   2.833   5.445   4.807 -0.0661  0.0209  0.0068
    1DIPC   NC329557   4.639  22.528   2.130 -0.0093 -0.0239 -0.0676
    1DIPC   PO429558   4.527  22.933   2.198  0.0441 -0.1077 -0.0351
    1DIPC   GL129559   4.671  23.026   2.626  0.3322 -0.1259 -0.3596
    1DIPC   GL229560   4.881  23.331   2.672  0.1325 -0.0577  0.2485
    1DIPC   C1A29561   4.491  23.013   3.017  0.0062  0.1498  0.0256
    1DIPC   D2A29562   4.353  22.928   3.464  0.1417 -0.0094 -0.0029
    1DIPC   D3A29563   4.083  22.473   3.512  0.0290  0.0148  0.2135
    1DIPC   C4A29564   4.346  22.324   3.717 -0.0383 -0.3279 -0.0652
    1DIPC   C1B29565   4.961  23.191   2.987  0.0599 -0.0266 -0.0285
    1DIPC   D2B29566   5.144  22.802   3.231  0.2746  0.0868  0.0147
    1DIPC   D3B29567   4.781  22.588   3.480 -0.1423 -0.1750  0.1029
    1DIPC   C4B29568   4.622  22.728   3.891 -0.0884 -0.0744  0.0172
    1DIPC   NC329569  17.893  29.314   3.388 -0.0435 -0.2180  0.0217
    1DIPC   PO429570  18.099  28.961   3.238  0.3455  0.2963  0.1295
    1DIPC   GL129571  17.886  28.835   3.698 -0.0306 -0.0218 -0.0331
    1DIPC   GL229572  18.131  28.885   3.808 -0.3247  0.0310  0.1107
    1DIPC   C1A29573  17.896  28.882   4.257 -0.0634 -0.1739 -0.1880
    1DIPC   D2A29574  18.258  29.035   4.392 -0.1208  0.3347 -0.0962
    1DIPC   D3A29575  17.957  29.105   4.752  0.0629 -0.1043 -0.3378
    1DIPC   C4A29576  18.006  28.860   5.065  0.1873  0.1400  0.1525
    1DIPC   C1B29577  18.297  28.594   4.091  0.2278  0.1290  0.2254
    1DIPC   D2B29578  18.002  28.269   4.242  0.0550  0.0239 -0.2268
    1DIPC   D3B29579  18.143  28.610   4.607  0.1515 -0.3950 -0.1651
    1DIPC   C4B29580  17.633  28.741   4.823  0.1732  0.1236 -0.0146
    1DIPC   NC329581   5.878   3.771   3.649 -0.0472 -0.0714 -0.3654
    1DIPC   PO429582   6.116   4.131   3.602  0.1503  0.0821 -0.3095
    1DIPC   GL129583   6.210   4.342   3.969  0.0183 -0.3730  0.1045
    1DIPC   GL229584   6.464   4.525   3.928 -0.1196  0.0512 -0.2255
    1DIPC   C1A29585   5.973   4.147   4.466  0.1139 -0.1510 -0.1047
    1DIPC   D2A29586   5.742   3.894   4.799 -0.0353  0.0302  0.0513
    1DIPC   D3A29587   5.653   4.316   4.875 -0.0025  0.1884 -0.2665
    1DIPC   C4A29588   5.774   4.651   4.632  0.0595 -0.1750 -0.2925
    1DIPC   C1B29589   6.653   4.765   4.325 -0.1878 -0.3108  0.0863
    1DIPC   D2B29590   6.946   4.535   4.610  0.0173 -0.1674  0.1704
    1DIPC   D3B29591   6.561   4.583   4.821 -0.0730 -0.2380  0.0976
    1DIPC   C4B29592   6.403   4.964   4.779 -0.1720  0.0619  0.1057
    1DIPC   NC329593  25.909   5.615   2.901 -0.0726 -0.3891 -0.1311
    1DIPC   PO429594  25.924   5.356   3.145  0.4579  0.1047  0.0020
    1DIPC   GL129595  25.849   5.515   3.503 -0.3138 -0.0892  0.2903
    1DIPC   GL229596  25.471   5.425   3.638  0.1966 -0.0088 -0.4487
    1DIPC   C1A29597  25.782   5.688   3.967  0.0089  0.1410  0.0379
    1DIPC   D2A29598  25.758   6.040   4.315  0.2195 -0.1609  0.1092
    1DIPC   D3A29599  25.507   5.988   4.725  0.0417  0.1357 -0.0563
    1DIPC   C4A29600  25.414   5.523   4.902 -0.1380 -0.0578  0.0867
    1DIPC   C1B29601  25.223   5.612   3.950 -0.0927  0.0960 -0.0179
    1DIPC   D2B29602  25.354   5.711   4.351  0.0890 -0.2904 -0.2989
    1DIPC   D3B29603  24.929   5.926   4.214  0.0464 -0.1232  0.0752
    1DIPC   C4B29604  24.905   5.913   3.775 -0.0702  0.2944  0.0433
    1DIPC   NC329605  16.662   2.524   2.412 -0.1406  0.0384 -0.1432
    1DIPC   PO429606  16.797   2.850   2.710 -0.2358 -0.0161 -0.0291
    1DIPC   GL129607  16.843   2.767   3.171 -0.4381  0.0788  0.1595
    1DIPC   GL229608  16.823   3.041   3.296 -0.0533  0.0667 -0.0094
    1DIPC   C1A29609  16.934   2.545   3.523  0.2357  0.0665 -0.1861
    1DIPC   D2A29610  17.125   2.335   3.745  0.2803 -0.0814 -0.2866
    1DIPC   D3A29611  17.085   2.141   4.173 -0.0535  0.3400  0.0626
    1DIPC   C4A29612  17.248   1.776   4.471  0.1268  0.3654  0.0083
    1DIPC   C1B29613  16.782   3.039   3.707  0.0314  0.0847  0.1579
    1DIPC   D2B29614  16.369   2.746   3.936  0.1213 -0.0642 -0.2329
    1DIPC   D3B29615  16.338   2.673   4.389 -0.1954 -0.3528 -0.3179
    1DIPC   C4B29616  16.405   2.993   4.670  0.1805  0.0538  0.0187
    1DIPC   NC329617   9.799  25.549   2.543 -0.0629 -0.2019 -0.1265
    1DIPC   PO429618   9.369  25.421   2.483  0.1543 -0.0869  0.2105
    1DIPC   GL129619   9.531  25.516   2.951  0.0167  0.1429 -0.0976
    1DIPC   GL229620   9.560  25.308   3.089  0.3094  0.1182 -0.2109
    1DIPC   C1A29621   9.677  25.826   3.208 -0.0787 -0.0036  0.2200
    1DIPC   D2A29622   9.563  25.895   3.635  0.0505  0.1816 -0.1300
    1DIPC   D3A29623   9.555  26.184   4.001 -0.1640 -0.2395  0.0448
    1DIPC   C4A29624   9.384  26.530   4.215  0.1470 -0.1328  0.0345
    1DIPC   C1B29625   9.752  24.992   3.336 -0.0647  0.0101 -0.0454
    1DIPC   D2B29626   9.931  25.065   3.766  0.1511 -0.1769  0.0447
    1DIPC   D3B29627  10.368  25.124   3.933  0.0654 -0.0805  0.1229
    1DIPC   C4B29628  10.291  25.396   4.311 -0.1079 -0.0231  0.0938
    1DIPC   NC329629   6.105   5.756   2.675 -0.1835  0.1909  0.0915
    1DIPC   PO429630   6.236   5.704   2.968  0.1196 -0.0656  0.1563
    1DIPC   GL129631   6.209   5.907   3.378  0.1662  0.1392  0.0287
    1DIPC   GL229632   6.064   6.265   3.440  0.0194 -0.0159  0.1904
    1DIPC   C1A29633   5.964   5.854   3.795  0.2019 -0.0013  0.3434
    1DIPC   D2A29634   6.026   5.707   4.269  0.2434 -0.0346  0.0668
    1DIPC   D3A29635   5.883   5.989   4.584  0.0794 -0.0529 -0.1108
    1DIPC   C4A29636   5.924   6.358   4.330 -0.0372  0.1084  0.1077
    1DIPC   C1B29637   6.232   6.276   3.836 -0.0941  0.2660 -0.0966
    1DIPC   D2B29638   6.415   6.007   4.206 -0.1800  0.0264 -0.0228
    1DIPC   D3B29639   6.739   6.088   4.309  0.2211 -0.1176  0.0964
    1DIPC   C4B29640   6.803   6.296   4.792  0.1118  0.0008  0.1714
    1DIPC   NC329641  22.465  24.343   2.174 -0.1692  0.2352  0.2459
    1DIPC   PO429642  22.554  23.947   2.455 -0.0867 -0.1465 -0.2931
    1DIPC   GL129643  22.465  23.834   2.840 -0.2513  0.1613 -0.2642
    1DIPC   GL229644  22.347  24.064   2.942 -0.2026 -0.0952  0.2645
    1DIPC   C1A29645  22.692  23.713   3.122  0.1761 -0.1748 -0.4137
    1DIPC   D2A29646  22.906  23.375   3.274 -0.3442 -0.1290 -0.1709
    1DIPC   D3A29647  22.404  23.408   3.397  0.0329 -0.0732  0.0378
    1DIPC   C4A29648  22.165  23.712   3.448 -0.0609 -0.1833 -0.0504
    1DIPC   C1B29649  22.220  24.344   3.189  0.0886 -0.3197 -0.1463
    1DIPC   D2B29650  21.961  24.841   3.217  0.1403  0.1291  0.2121
    1DIPC   D3B29651  21.530  25.025   3.240  0.2109 -0.0958 -0.0615
    1DIPC   C4B29652  21.379  25.205   3.683  0.1350 -0.0961 -0.1551
    1DIPC   NC329653  13.172  19.446   1.984  0.0056 -0.1579  0.0434
    1DIPC   PO429654  13.445  19.091   2.182  0.1212 -0.1908 -0.0313
    1DIPC   GL129655  13.380  19.146   2.547  0.0867  0.3238 -0.1998
    1DIPC   GL229656  13.176  18.911   2.680  0.3145  0.1457 -0.2809
    1DIPC   C1A29657  13.703  19.076   2.892 -0.0971  0.1552 -0.3657
    1DIPC   D2A29658  13.890  19.208   3.233 -0.0263 -0.3146 -0.4504
    1DIPC   D3A29659  13.496  19.366   3.356 -0.0412 -0.0869  0.1031
    1DIPC   C4A29660  13.429  19.130   3.654 -0.5084 -0.2570 -0.1593
    1DIPC   C1B29661  12.836  19.073   2.974  0.0054 -0.0934 -0.2722
    1DIPC   D2B29662  12.590  19.317   3.406 -0.2670 -0.1637  0.1566
    1DIPC   D3B29663  12.844  19.533   3.581 -0.0521  0.0307 -0.4958
    1DIPC   C4B29664  13.071  19.363   3.870  0.1319 -0.2131  0.1114
    1DIPC   NC329665  29.579   6.447   2.884  0.0460  0.0032 -0.2130
    1DIPC   PO429666  29.466   5.975   2.866  0.0552  0.0729 -0.1699
    1DIPC   GL129667  29.538   5.816   3.326  0.0276 -0.0663 -0.0892
    1DIPC   GL229668  29.721   5.948   3.574 -0.1023  0.1465  0.0261
    1DIPC   C1A29669  29.444   5.499   3.654  0.1066 -0.0392  0.1001
    1DIPC   D2A29670  29.288   5.466   4.113 -0.0086  0.1287  0.1067
    1DIPC   D3A29671  29.661   5.234   4.227 -0.0725 -0.2889  0.2071
    1DIPC   C4A29672  29.771   5.222   4.672  0.2353 -0.0375  0.2440
    1DIPC   C1B29673  29.807   5.957   3.984 -0.2100  0.3095 -0.1356
    1DIPC   D2B29674  29.966   6.099   4.350 -0.1132  0.1572 -0.2367
    1DIPC   D3B29675  29.874   6.341   4.688 -0.2973 -0.1672  0.3079
    1DIPC   C4B29676  30.254   6.686   4.824  0.2255 -0.1301  0.1583
    1DIPC   NC329677  28.692  30.256   3.231 -0.3247 -0.1668 -0.5281
    1DIPC   PO429678  29.064   0.029   3.526  0.2348  0.0182 -0.1829
    1DIPC   GL129679  29.176  30.140   3.950  0.0224  0.0916  0.0847
    1DIPC   GL229680  29.305  29.991   4.215  0.1269 -0.0997 -0.1915
    1DIPC   C1A29681  28.791  30.043   4.243  0.3734  0.2239  0.3179
    1DIPC   D2A29682  28.539   0.005   4.392 -0.3255 -0.0986  0.0012
    1DIPC   D3A29683  28.637   0.120   4.911 -0.1227  0.0705 -0.0766
    1DIPC   C4A29684  29.030   0.228   5.006 -0.2441  0.1413 -0.1674
    1DIPC   C1B29685  29.460  30.183   4.578 -0.1832  0.1356  0.2055
    1DIPC   D2B29686  29.555  30.184   5.045  0.0943 -0.3136 -0.0940
    1DIPC   D3B29687  29.870  30.120   5.318 -0.1049 -0.0924  0.0314
    1DIPC   C4B29688  30.008  29.749   5.072 -0.0154 -0.0391  0.0004
    1DIPC   NC329689  13.759   3.730   2.099  0.0220  0.2305  0.1095
    1DIPC   PO429690  13.596   3.731   2.591 -0.1843  0.0865 -0.1874
    1DIPC   GL129691  13.587   3.864   3.134 -0.2245 -0.0088 -0.2897
    1DIPC   GL229692  13.726   3.563   3.279 -0.3553 -0.0417 -0.1154
    1DIPC   C1A29693  13.618   4.094   3.515  0.2638 -0.2493 -0.0445
    1DIPC   D2A29694  13.639   3.931   3.929 -0.2697 -0.1389 -0.1553
    1DIPC   D3A29695  13.589   4.378   4.188 -0.2982  0.1908  0.1701
    1DIPC   C4A29696  13.826   4.541   4.579  0.1142  0.1986  0.3823
    1DIPC   C1B29697  13.961   3.749   3.533 -0.2730  0.1607 -0.0158
    1DIPC   D2B29698  14.160   3.653   3.817  0.2496 -0.2770  0.1099
    1DIPC   D3B29699  13.971   3.183   3.913  0.1239 -0.1718 -0.0717
    1DIPC   C4B29700  14.110   2.779   3.656 -0.1332  0.1351  0.0366
    1DIPC   NC329701   1.247  26.616   3.342  0.2057 -0.0649  0.2865
    1DIPC   PO429702   1.149  26.883   3.716 -0.0934  0.1293 -0.2685
    1DIPC   GL129703   1.274  26.818   4.111  0.1818 -0.2127 -0.0587
    1DIPC   GL229704   1.220  26.560   4.183  0.0360 -0.0108  0.0186
    1DIPC   C1A29705   1.341  27.039   4.474  0.3193  0.2700  0.0369
    1DIPC   D2A29706   1.678  27.213   4.520 -0.2036  0.1298 -0.0415
    1DIPC   D3A29707   1.674  27.322   4.134 -0.0833  0.0936  0.1331
    1DIPC   C4A29708   2.038  27.455   4.073  0.1207 -0.0821 -0.0694
    1DIPC   C1B29709   1.251  26.552   4.590  0.0569  0.2140 -0.1031
    1DIPC   D2B29710   1.532  26.617   4.988  0.1403  0.0593 -0.0222
    1DIPC   D3B29711   1.823  26.698   4.703  0.0901  0.1604 -0.1166
    1DIPC   C4B29712   2.000  26.271   4.477 -0.0652 -0.2533  0.1237
    1DIPC   NC329713   9.310  16.913   2.453  0.0820 -0.0429 -0.0874
    1DIPC   PO429714   9.147  17.376   2.384  0.3224  0.1262 -0.3773
    1DIPC   GL129715   9.049  17.426   2.756 -0.5254 -0.2756  0.3596
    1DIPC   GL229716   9.245  17.655   2.981 -0.0876 -0.0974 -0.1534
    1DIPC   C1A29717   8.708  17.480   3.052  0.0536  0.4619  0.1303
    1DIPC   D2A29718   8.664  17.437   3.461 -0.0588  0.1191 -0.0760
    1DIPC   D3A29719   8.613  17.075   3.725  0.0837  0.2904  0.1896
    1DIPC   C4A29720   8.395  16.691   3.593  0.0948  0.0028  0.2632
    1DIPC   C1B29721   9.172  17.619   3.489  0.0072  0.1403 -0.0311
    1DIPC   D2B29722   9.255  17.183   3.758 -0.2557  0.2989 -0.1605
    1DIPC   D3B29723   9.239  17.112   3.316  0.0874 -0.4604  0.1209
    1DIPC   C4B29724   9.324  16.740   3.093 -0.2221  0.1216 -0.1166
    1DIPC   NC329725   2.333  29.779   3.739  0.0939  0.0172  0.0824
    1DIPC   PO429726   2.811  29.848   3.766 -0.1261 -0.3324  0.0373
    1DIPC   GL129727   2.703  29.844   4.173 -0.2073 -0.2951  0.1178
    1DIPC   GL229728   2.427  30.071   4.220  0.0659 -0.2030  0.0939
    1DIPC   C1A29729   2.812  29.622   4.585  0.2213  0.0078 -0.0121
    1DIPC   D2A29730   2.490  29.673   4.864  0.1566 -0.0832  0.0469
    1DIPC   D3A29731   2.690  29.820   5.285 -0.1891 -0.0343  0.2878
    1DIPC   C4A29732   3.047  29.792   5.338  0.2304  0.0747  0.1682
    1DIPC   C1B29733   2.521   0.031   4.368 -0.1106 -0.1373 -0.0149
    1DIPC   D2B29734   2.443   0.264   4.690  0.2763  0.1449 -0.0454
    1DIPC   D3B29735   2.863   0.307   4.928  0.2175  0.0369 -0.0772
    1DIPC   C4B29736   2.948   0.365   5.197 -0.1255 -0.3232  0.1278
    1DIPC   NC329737  30.103  29.529   3.211 -0.1145  0.1491  0.1134
    1DIPC   PO429738  30.323  29.688   3.552 -0.4058  0.1191  0.0147
    1DIPC   GL129739  30.283  29.476   3.877  0.0139 -0.1938  0.1733
    1DIPC   GL229740   0.057  29.146   4.007  0.2038 -0.0284 -0.1390
    1DIPC   C1A29741  30.266  29.645   4.353  0.2186 -0.0597 -0.0173
    1DIPC   D2A29742  29.883  29.886   4.610  0.1941 -0.1793  0.0687
    1DIPC   D3A29743  29.935   0.062   4.577  0.2100  0.1823 -0.2363
    1DIPC   C4A29744  30.247   0.329   4.331 -0.0172  0.1875  0.0323
    1DIPC   C1B29745   0.365  29.420   4.094  0.2212 -0.0803  0.1512
    1DIPC   D2B29746   0.354  29.920   4.263 -0.1956  0.1289 -0.2391
    1DIPC   D3B29747   0.420  29.667   4.648 -0.2064 -0.3580 -0.1107
    1DIPC   C4B29748   0.117  29.502   4.964  0.0574 -0.1288 -0.5031
    1DIPC   NC329749   6.391   4.495   3.434 -0.1536 -0.3057 -0.0690
    1DIPC   PO429750   6.243   4.894   3.354 -0.0818 -0.0370  0.0828
    1DIPC   GL129751   6.089   4.856   3.763 -0.0943 -0.0380  0.0017
    1DIPC   GL229752   6.272   4.960   4.084 -0.0530  0.0594  0.0093
    1DIPC   C1A29753   5.657   4.977   3.702  0.2150 -0.1494  0.0506
    1DIPC   D2A29754   5.280   5.191   3.861  0.1601  0.2200  0.2601
    1DIPC   D3A29755   5.568   4.968   4.194  0.2693  0.2391 -0.1884
    1DIPC   C4A29756   5.792   4.577   4.102 -0.1296 -0.2496  0.0814
    1DIPC   C1B29757   6.019   5.179   4.436 -0.1903 -0.2139 -0.0849
    1DIPC   D2B29758   5.640   5.424   4.624  0.0528  0.0343 -0.0663
    1DIPC   D3B29759   5.459   5.071   4.807 -0.1109 -0.0436  0.1927
    1DIPC   C4B29760   5.513   4.799   5.140 -0.0471 -0.0036  0.0292
    1DIPC   NC329761  13.314  12.393   3.295 -0.1635 -0.0715  0.1638
    1DIPC   PO429762  13.529  12.058   3.393 -0.0840  0.0469  0.1862
    1DIPC   GL129763  13.354  12.195   3.809  0.0095 -0.0841  0.2602
    1DIPC   GL229764  13.247  11.981   3.970  0.1263  0.1255 -0.3444
    1DIPC   C1A29765  13.511  12.457   4.128  0.5495 -0.0989 -0.1124
    1DIPC   D2A29766  13.301  12.489   4.504  0.1657  0.1752  0.1300
    1DIPC   D3A29767  13.633  12.443   4.922  0.1035 -0.0658 -0.0999
    1DIPC   C4A29768  13.622  12.271   5.351  0.1043 -0.1322  0.2288
    1DIPC   C1B29769  13.074  12.096   4.307  0.1887 -0.3874  0.0478
    1DIPC   D2B29770  12.804  12.242   4.645  0.2379 -0.0046  0.1093
    1DIPC   D3B29771  12.816  11.796   4.665 -0.1337 -0.0552 -0.1726
    1DIPC   C4B29772  12.503  11.439   4.801  0.1293 -0.0489 -0.0553
    1DIPC   NC329773   5.509  25.628   2.859 -0.1825 -0.0163 -0.2487
    1DIPC   PO429774   5.336  25.338   3.085  0.2207  0.2452 -0.1220
    1DIPC   GL129775   5.405  25.516   3.467  0.0431  0.3390  0.1315
    1DIPC   GL229776   5.187  25.746   3.539 -0.3812  0.0939  0.0833
    1DIPC   C1A29777   5.774  25.306   3.629  0.0709  0.1124 -0.0569
    1DIPC   D2A29778   6.163  25.376   4.005 -0.1699 -0.1334 -0.0457
    1DIPC   D3A29779   5.918  25.255   4.349  0.2435 -0.0480  0.2077
    1DIPC   C4A29780   5.585  25.588   4.515 -0.2693  0.2084 -0.1381
    1DIPC   C1B29781   5.008  25.310   3.711  0.1080 -0.1336  0.0485
    1DIPC   D2B29782   4.907  25.156   4.040 -0.2719  0.3431  0.1406
    1DIPC   D3B29783   4.962  25.611   4.095 -0.0760 -0.1178  0.3110
    1DIPC   C4B29784   5.163  25.859   4.373  0.1029 -0.1337  0.1636
    1DIPC   NC329785  16.993  22.119   2.350  0.0898  0.0287  0.1665
    1DIPC   PO429786  17.315  21.988   2.636 -0.1499  0.2279  0.5053
    1DIPC   GL129787  17.243  21.679   2.959 -0.2628 -0.3149  0.0454
    1DIPC   GL229788  17.198  21.837   3.135 -0.0494  0.5374 -0.2032
    1DIPC   C1A29789  17.061  21.391   3.199 -0.1520  0.1032  0.0078
    1DIPC   D2A29790  16.987  21.200   3.573 -0.0137 -0.4862  0.2454
    1DIPC   D3A29791  16.895  21.539   3.849  0.1692  0.0399  0.2923
    1DIPC   C4A29792  17.074  21.690   4.161  0.2185 -0.1416 -0.0039
    1DIPC   C1B29793  16.828  22.132   3.293  0.1845  0.1067 -0.0569
    1DIPC   D2B29794  16.648  22.564   3.590 -0.0156  0.2493  0.0997
    1DIPC   D3B29795  16.773  22.309   3.973 -0.0568 -0.0083 -0.2940
    1DIPC   C4B29796  17.073  22.424   4.263 -0.0907  0.0151  0.1203
    1DIPC   NC329797  10.966   0.555   2.801 -0.2906  0.5391 -0.1708
    1DIPC   PO429798  11.207   0.859   3.092 -0.0484  0.1033 -0.1689
    1DIPC   GL129799  11.363   1.049   3.432 -0.2241  0.1837  0.2613
    1DIPC   GL229800  11.488   0.905   3.541  0.1410  0.0169 -0.3681
    1DIPC   C1A29801  11.723   1.333   3.792  0.0017  0.0353 -0.0325
    1DIPC   D2A29802  11.784   1.172   4.257  0.1865 -0.1439  0.0035
    1DIPC   D3A29803  11.858   1.350   4.702 -0.1994 -0.0190  0.1998
    1DIPC   C4A29804  11.620   1.564   4.971 -0.2475  0.3149 -0.0520
    1DIPC   C1B29805  11.308   0.744   3.933 -0.1066 -0.0420 -0.0747
    1DIPC   D2B29806  11.198   0.743   4.407  0.2469 -0.2261  0.0118
    1DIPC   D3B29807  11.491   0.943   4.598 -0.0361  0.0275 -0.1045
    1DIPC   C4B29808  11.493   1.099   4.996 -0.1974  0.0906  0.0433
    1DIPC   NC329809  19.288   2.112   2.902  0.0665  0.0816  0.1033
    1DIPC   PO429810  18.987   2.246   2.993 -0.0610  0.4956  0.4253
    1DIPC   GL129811  18.882   2.416   3.270  0.1290  0.2263  0.1886
    1DIPC   GL229812  19.010   2.727   3.361 -0.1554 -0.1413  0.0239
    1DIPC   C1A29813  18.806   2.425   3.752  0.2069  0.1243 -0.1044
    1DIPC   D2A29814  18.564   2.717   4.056 -0.1492  0.0118  0.2068
    1DIPC   D3A29815  18.781   2.950   3.735  0.0975  0.0757  0.1236
    1DIPC   C4A29816  18.928   3.260   3.757  0.0577 -0.1514  0.1013
    1DIPC   C1B29817  19.232   2.706   3.737  0.1777 -0.0669  0.2227
    1DIPC   D2B29818  19.165   2.746   4.153 -0.0635 -0.2185 -0.0423
    1DIPC   D3B29819  18.881   2.655   4.504  0.1150  0.1926  0.1371
    1DIPC   C4B29820  18.752   2.139   4.473  0.4266 -0.1351 -0.0775
    1DIPC   NC329821  24.380   9.541   1.854  0.0011 -0.0381  0.0064
    1DIPC   PO429822  24.655   9.330   2.055 -0.2002 -0.2135  0.1943
    1DIPC   GL129823  24.808   9.569   2.364  0.0614  0.0124  0.0947
    1DIPC   GL229824  24.664   9.417   2.659 -0.1670 -0.1053  0.0675
    1DIPC   C1A29825  25.102   9.801   2.623  0.0692  0.0843 -0.1023
    1DIPC   D2A29826  25.637   9.919   2.867  0.1803  0.0792  0.1692
    1DIPC   D3A29827  25.448   9.936   3.224 -0.4346  0.0273  0.1370
    1DIPC   C4A29828  25.811   9.896   3.481 -0.4995 -0.1900 -0.0294
    1DIPC   C1B29829  24.630   9.570   3.052  0.0214 -0.0437  0.1805
    1DIPC   D2B29830  24.432   9.835   3.278 -0.0579  0.1145 -0.0495
    1DIPC   D3B29831  24.000   9.792   3.406  0.2566 -0.2980  0.0591
    1DIPC   C4B29832  23.718   9.479   3.653 -0.2165  0.0383  0.0163
    1DIPC   NC329833   7.364   5.066   3.280 -0.0049 -0.0350 -0.3374
    1DIPC   PO429834   7.570   5.127   3.588  0.1163 -0.3258 -0.1195
    1DIPC   GL129835   7.860   5.287   3.728  0.1773  0.0840  0.0287
    1DIPC   GL229836   8.090   5.058   3.865  0.2976  0.1010  0.0647
    1DIPC   C1A29837   7.983   5.463   4.051  0.0886 -0.0572  0.3530
    1DIPC   D2A29838   8.070   5.808   4.388 -0.0483  0.0988  0.2041
    1DIPC   D3A29839   8.228   6.076   4.709 -0.0812  0.1514  0.0538
    1DIPC   C4A29840   7.854   6.243   4.913 -0.1060  0.1365 -0.2685
    1DIPC   C1B29841   8.004   4.869   4.247 -0.1770  0.0169  0.1076
    1DIPC   D2B29842   7.820   4.796   4.658  0.3345 -0.2616  0.1610
    1DIPC   D3B29843   8.076   4.552   4.920  0.0884  0.2412 -0.1410
    1DIPC   C4B29844   7.772   4.427   5.176  0.7261  0.2005 -0.0255
    1DIPC   NC329845  14.771   6.484   2.116 -0.0991  0.3428  0.4039
    1DIPC   PO429846  14.397   6.447   2.372  0.1801  0.0967  0.0107
    1DIPC   GL129847  14.422   6.338   2.761  0.2178 -0.1028  0.0874
    1DIPC   GL229848  14.754   6.421   2.719  0.2046 -0.0781 -0.1393
    1DIPC   C1A29849  14.262   6.256   3.279 -0.0823 -0.2977 -0.0527
    1DIPC   D2A29850  14.296   6.421   3.612  0.2111 -0.2205  0.1249
    1DIPC   D3A29851  14.299   6.217   4.017 -0.3603 -0.0341 -0.4546
    1DIPC   C4A29852  14.595   6.185   4.253  0.3212  0.0533  0.0565
    1DIPC   C1B29853  15.121   6.365   2.912 -0.1070 -0.2152  0.2382
    1DIPC   D2B29854  15.575   6.449   3.077  0.2884  0.0838  0.3758
    1DIPC   D3B29855  15.682   6.841   3.115 -0.0904  0.1655  0.1796
    1DIPC   C4B29856  15.538   7.260   3.038  0.3484  0.0851 -0.2052
    1DIPC   NC329857   5.551   7.678   2.745 -0.1406 -0.0261  0.2591
    1DIPC   PO429858   5.859   7.653   2.833  0.1310 -0.0679 -0.2276
    1DIPC   GL129859   6.068   7.578   3.275 -0.1600 -0.3519 -0.1538
    1DIPC   GL229860   5.975   7.899   3.436  0.3207 -0.2255  0.3123
    1DIPC   C1A29861   6.148   7.582   3.795  0.2509 -0.2182 -0.0490
    1DIPC   D2A29862   6.032   7.633   4.225  0.3078 -0.1698  0.2023
    1DIPC   D3A29863   6.422   7.862   4.610 -0.0307 -0.2945  0.1807
    1DIPC   C4A29864   6.474   7.618   5.049  0.2490 -0.0977  0.1403
    1DIPC   C1B29865   5.914   8.009   3.887 -0.0214 -0.0885  0.0464
    1DIPC   D2B29866   5.942   8.099   4.284  0.0259  0.0122  0.1743
    1DIPC   D3B29867   5.718   7.893   4.529 -0.2994 -0.1731 -0.1198
    1DIPC   C4B29868   5.477   7.571   4.635 -0.0006 -0.2072  0.0265
    1DIPC   NC329869  20.956  23.272   2.476  0.4703 -0.0532  0.0181
    1DIPC   PO429870  21.393  23.137   2.604  0.2206 -0.1598 -0.3923
    1DIPC   GL129871  21.177  23.050   2.994  0.1685  0.0686  0.3336
    1DIPC   GL229872  20.903  23.312   3.133 -0.1054  0.0256 -0.0781
    1DIPC   C1A29873  21.386  23.040   3.466  0.1153  0.5133 -0.1027
    1DIPC   D2A29874  21.164  22.980   3.872  0.1876  0.0511 -0.2913
    1DIPC   D3A29875  21.561  23.078   3.979 -0.0469  0.2102 -0.0123
    1DIPC   C4A29876  21.629  22.831   4.336  0.1058  0.1796 -0.1773
    1DIPC   C1B29877  20.837  23.289   3.563 -0.1173  0.1145  0.2739
    1DIPC   D2B29878  20.814  23.374   4.051 -0.0815 -0.1912  0.0008
    1DIPC   D3B29879  20.602  23.313   4.388  0.0112  0.0450 -0.0074
    1DIPC   C4B29880  20.681  23.188   4.790 -0.0945  0.1661  0.0193
    1DIPC   NC329881  24.555   5.393   3.028  0.0514  0.1440  0.0206
    1DIPC   PO429882  24.973   5.105   3.034 -0.0218  0.0794 -0.0267
    1DIPC   GL129883  24.835   5.020   3.451  0.2296  0.0542  0.0617
    1DIPC   GL229884  24.510   5.123   3.470 -0.1695  0.1517 -0.0701
    1DIPC   C1A29885  24.835   5.260   3.879  0.2464 -0.0897  0.2004
    1DIPC   D2A29886  24.978   5.197   4.238  0.0176  0.3279 -0.2884
    1DIPC   D3A29887  24.906   5.441   4.644  0.2110 -0.0382  0.0666
    1DIPC   C4A29888  25.035   5.888   4.735  0.0841 -0.0319 -0.2315
    1DIPC   C1B29889  24.312   5.208   3.864 -0.2322  0.2209 -0.0721
    1DIPC   D2B29890  24.076   5.487   3.964  0.0605 -0.1231  0.0355
    1DIPC   D3B29891  24.189   5.554   4.316 -0.1895  0.2044  0.1625
    1DIPC   C4B29892  24.578   5.477   4.274 -0.1392 -0.4859  0.0156
    1DIPC   NC329893   3.984  27.019   3.327  0.3137  0.0575  0.3703
    1DIPC   PO429894   3.700  26.845   3.553  0.2688 -0.0561  0.3029
    1DIPC   GL129895   3.843  27.093   3.859  0.0593  0.1340 -0.2319
    1DIPC   GL229896   4.177  27.259   3.929  0.2978 -0.0300  0.4994
    1DIPC   C1A29897   3.908  26.741   4.162 -0.4306  0.0077 -0.2134
    1DIPC   D2A29898   4.135  26.687   4.510 -0.3609 -0.0406  0.4249
    1DIPC   D3A29899   4.234  26.877   4.907 -0.0664  0.1530 -0.0215
    1DIPC   C4A29900   3.784  27.104   5.095  0.0031 -0.2280 -0.1717
    1DIPC   C1B29901   4.283  27.605   4.142 -0.1485 -0.1888 -0.2896
    1DIPC   D2B29902   4.484  27.694   4.489 -0.0449 -0.1263  0.5017
    1DIPC   D3B29903   4.832  27.917   4.386  0.0941  0.2238  0.0912
    1DIPC   C4B29904   4.899  28.105   4.008 -0.1054 -0.0238  0.0302
    1DIPC   NC329905  17.826  16.589   2.898 -0.1006  0.2712  0.2617
    1DIPC   PO429906  18.134  16.952   2.942 -0.0423 -0.1154  0.1538
    1DIPC   GL129907  18.326  16.736   3.215 -0.0540  0.0248  0.0841
    1DIPC   GL229908  18.613  16.690   3.224 -0.0523  0.0239  0.1604
    1DIPC   C1A29909  18.377  16.472   3.601  0.0446  0.3825 -0.1259
    1DIPC   D2A29910  18.015  16.278   3.807 -0.0387  0.4647 -0.4315
    1DIPC   D3A29911  18.268  15.953   3.596  0.4179 -0.0924 -0.2171
    1DIPC   C4A29912  18.508  15.553   3.663 -0.2006 -0.2478  0.0503
    1DIPC   C1B29913  18.601  16.916   3.603  0.1871 -0.2641 -0.2460
    1DIPC   D2B29914  18.743  17.378   3.631 -0.2324 -0.2524  0.2709
    1DIPC   D3B29915  18.757  17.388   3.998  0.1437 -0.0165 -0.1776
    1DIPC   C4B29916  19.194  17.544   4.127 -0.1985  0.2393  0.2605
    1DIPC   NC329917  13.318  28.931   3.077  0.1627  0.0172 -0.1277
    1DIPC   PO429918  13.237  28.489   3.198  0.0953 -0.1374 -0.1297
    1DIPC   GL129919  13.067  28.579   3.601 -0.0683 -0.1555 -0.0678
    1DIPC   GL229920  12.798  28.772   3.475 -0.1472  0.1527 -0.1381
    1DIPC   C1A29921  13.061  28.472   4.013  0.1323  0.1849  0.1788
    1DIPC   D2A29922  12.891  28.066   4.294  0.1107 -0.0475  0.0090
    1DIPC   D3A29923  12.780  28.456   4.520 -0.0969 -0.1524  0.1396
    1DIPC   C4A29924  12.583  28.810   4.310  0.2361  0.0745 -0.0243
    1DIPC   C1B29925  12.591  28.972   3.754  0.3867  0.2018  0.0543
    1DIPC   D2B29926  12.424  29.253   4.094  0.2312  0.0537  0.1000
    1DIPC   D3B29927  12.147  29.228   4.401 -0.4413  0.2460 -0.2218
    1DIPC   C4B29928  12.182  29.149   4.810  0.1975  0.1084  0.3010
    1DIPC   NC329929  10.291  24.834   2.564  0.0239 -0.3575  0.1367
    1DIPC   PO429930  10.416  24.489   2.545  0.0888  0.2378  0.1956
    1DIPC   GL129931  10.410  24.281   2.906 -0.1211  0.0931  0.1048
    1DIPC   GL229932  10.453  24.441   3.172 -0.0860  0.2528  0.2246
    1DIPC   C1A29933  10.871  24.117   3.144  0.0896 -0.0372 -0.0132
    1DIPC   D2A29934  11.146  23.857   3.315 -0.3194 -0.0193 -0.2344
    1DIPC   D3A29935  11.052  24.081   3.733 -0.0997 -0.1587  0.0556
    1DIPC   C4A29936  11.257  23.805   4.004 -0.1586  0.0510 -0.1480
    1DIPC   C1B29937  10.650  24.492   3.598  0.2882  0.0307  0.3603
    1DIPC   D2B29938  10.645  24.667   4.015  0.2533  0.1415  0.1326
    1DIPC   D3B29939  11.012  24.946   4.111 -0.1922 -0.2603 -0.2468
    1DIPC   C4B29940  11.251  25.195   3.903 -0.0311  0.1181  0.0283
    1DIPC   NC329941  23.800  12.726   2.148  0.1863 -0.1318 -0.0857
    1DIPC   PO429942  23.904  13.091   2.203  0.0431 -0.0869 -0.2389
    1DIPC   GL129943  24.024  13.298   2.624  0.2226 -0.1065 -0.0183
    1DIPC   GL229944  23.924  13.423   2.863 -0.1372 -0.0650 -0.3262
    1DIPC   C1A29945  24.443  13.557   2.720  0.0598  0.3528 -0.2245
    1DIPC   D2A29946  24.513  13.747   3.149 -0.0236  0.3157  0.1948
    1DIPC   D3A29947  24.966  13.635   3.210 -0.1439 -0.1492  0.0841
    1DIPC   C4A29948  25.120  13.780   3.503 -0.0336 -0.1978 -0.1154
    1DIPC   C1B29949  24.131  13.495   3.258  0.1474 -0.1479 -0.1536
    1DIPC   D2B29950  24.202  13.662   3.675  0.0236 -0.3160  0.0089
    1DIPC   D3B29951  24.585  13.760   3.648  0.3056  0.1197 -0.0749
    1DIPC   C4B29952  24.768  13.558   3.923 -0.1208 -0.1909 -0.3754
    1DIPC   NC329953   2.765   2.314   3.158  0.1368 -0.0667 -0.0095
    1DIPC   PO429954   3.106   2.196   3.492  0.1079 -0.2033  0.1114
    1DIPC   GL129955   3.160   2.488   3.894  0.1403 -0.2936 -0.0755
    1DIPC   GL229956   2.923   2.813   3.880 -0.0578  0.1780 -0.3943
    1DIPC   C1A29957   3.030   2.815   4.389  0.0484 -0.3797  0.0487
    1DIPC   D2A29958   3.093   3.067   4.787 -0.0335 -0.0311  0.2170
    1DIPC   D3A29959   3.384   3.161   5.019 -0.5515  0.0618  0.1479
    1DIPC   C4A29960   3.716   3.433   4.968 -0.2686 -0.1749  0.0250
    1DIPC   C1B29961   2.800   3.174   4.132 -0.0778 -0.0201  0.0260
    1DIPC   D2B29962   2.593   3.134   4.531  0.0570 -0.1143 -0.1779
    1DIPC   D3B29963   2.671   2.770   4.733  0.1911 -0.0405  0.1066
    1DIPC   C4B29964   2.819   2.336   4.712  0.1679 -0.0125 -0.1887
    1DIPC   NC329965   5.857  23.884   2.445 -0.1805  0.2029  0.0464
    1DIPC   PO429966   5.483  24.144   2.554  0.0686 -0.1863  0.2170
    1DIPC   GL129967   5.308  23.883   2.896 -0.2342 -0.0927  0.1290
    1DIPC   GL229968   5.271  23.576   2.967  0.3822  0.1241  0.0106
    1DIPC   C1A29969   5.105  23.974   3.290 -0.0047 -0.0180 -0.1062
    1DIPC   D2A29970   5.044  23.955   3.762 -0.0635 -0.0314  0.1506
    1DIPC   D3A29971   5.332  23.915   4.106  0.2485  0.0265  0.0303
    1DIPC   C4A29972   5.741  23.793   4.140 -0.0248  0.0327  0.1544
    1DIPC   C1B29973   5.188  23.485   3.368  0.1218  0.3130  0.1147
    1DIPC   D2B29974   5.266  23.486   3.749 -0.2812  0.0797 -0.2541
    1DIPC   D3B29975   4.783  23.559   3.958  0.1476 -0.1032 -0.2757
    1DIPC   C4B29976   4.642  23.461   4.387  0.0559 -0.3044 -0.2370
    1DIPC   NC329977  18.799   4.040   2.386  0.0551  0.0964  0.1514
    1DIPC   PO429978  19.049   4.398   2.447 -0.1844 -0.2881  0.3255
    1DIPC   GL129979  19.059   4.134   2.796 -0.1047  0.0033  0.1978
    1DIPC   GL229980  18.829   4.094   2.996 -0.0760 -0.0470 -0.3672
    1DIPC   C1A29981  19.126   3.851   3.310  0.0753  0.1019  0.1159
    1DIPC   D2A29982  19.489   3.593   3.534  0.2408  0.2952 -0.2521
    1DIPC   D3A29983  19.622   3.773   4.016  0.0902  0.0399 -0.2770
    1DIPC   C4A29984  19.525   4.176   4.066  0.1344  0.3641  0.0200
    1DIPC   C1B29985  19.165   4.377   3.189  0.1510 -0.0563  0.0276
    1DIPC   D2B29986  19.610   4.505   3.300  0.2190  0.0637 -0.2573
    1DIPC   D3B29987  19.698   4.506   3.747  0.0641  0.1373  0.1349
    1DIPC   C4B29988  19.683   4.845   4.018  0.2216 -0.1970 -0.3276
    1DIPC   NC329989  15.348   4.330   2.929  0.2764  0.3063  0.2050
    1DIPC   PO429990  15.464   4.630   2.422 -0.0562  0.0755 -0.1587
    1DIPC   GL129991  15.667   4.711   2.858  0.1225  0.2224 -0.0216
    1DIPC   GL229992  15.981   4.634   2.894  0.0321  0.0320 -0.2793
    1DIPC   C1A29993  15.690   5.106   2.941  0.1575  0.3738 -0.1414
    1DIPC   D2A29994  15.878   5.431   2.840  0.0249  0.0191  0.0895
    1DIPC   D3A29995  15.773   5.489   3.259 -0.1393 -0.3120 -0.2508
    1DIPC   C4A29996  15.740   5.188   3.428 -0.1245  0.2124  0.3286
    1DIPC   C1B29997  16.189   4.854   3.231 -0.2378 -0.3604 -0.1758
    1DIPC   D2B29998  16.465   5.157   3.578  0.0847  0.1039 -0.1982
    1DIPC   D3B29999  16.109   5.387   3.694  0.1047  0.1618 -0.0205
    1DIPC   C4B30000  16.142   5.816   3.693 -0.0056 -0.0467  0.2618
    1DIPC   NC330001  27.345   3.997   3.937  0.1528 -0.0632  0.1506
    1DIPC   PO430002  27.119   3.665   3.925 -0.1837  0.1460 -0.1599
    1DIPC   GL130003  27.437   3.607   4.336 -0.2574 -0.3433  0.1377
    1DIPC   GL230004  27.671   3.782   4.254 -0.1489  0.0603 -0.0639
    1DIPC   C1A30005  27.576   3.644   4.769  0.0216 -0.1114  0.0244
    1DIPC   D2A30006  27.944   3.657   5.241 -0.0858  0.2148  0.0295
    1DIPC   D3A30007  28.013   4.014   4.932  0.2779 -0.1115 -0.1022
    1DIPC   C4A30008  28.295   4.367   4.908  0.2841 -0.2452 -0.0576
    1DIPC   C1B30009  27.766   4.079   4.473 -0.2298 -0.0085 -0.3579
    1DIPC   D2B30010  27.585   4.409   4.523  0.1944  0.0502  0.2984
    1DIPC   D3B30011  27.621   4.363   4.864 -0.0986  0.0205  0.1759
    1DIPC   C4B30012  27.269   4.556   5.213  0.1269  0.0511  0.2541
    1DIPC   NC330013   3.078  29.439   3.796 -0.0203  0.1112  0.1238
    1DIPC   PO430014   2.541  29.355   3.998  0.1182  0.3764  0.0079
    1DIPC   GL130015   2.215  29.555   4.167  0.2094 -0.0989  0.0441
    1DIPC   GL230016   2.365  29.421   4.484 -0.0172  0.2377 -0.1064
    1DIPC   C1A30017   2.006  29.803   4.557 -0.1729  0.1456  0.0596
    1DIPC   D2A30018   2.060  29.836   4.990 -0.0286 -0.0565  0.1410
    1DIPC   D3A30019   2.417  30.182   5.017  0.2705  0.0919  0.1921
    1DIPC   C4A30020   2.358   0.362   5.149  0.2652  0.0886  0.1631
    1DIPC   C1B30021   2.159  29.091   4.572 -0.2162 -0.1766  0.1781
    1DIPC   D2B30022   1.656  29.137   4.599 -0.2420 -0.3864 -0.2658
    1DIPC   D3B30023   1.717  28.922   4.971 -0.1552  0.0281  0.0807
    1DIPC   C4B30024   1.543  28.553   4.887  0.2122 -0.0152 -0.1047
    1DIPC   NC330025   8.524   0.092   2.553  0.1817  0.0619 -0.0509
    1DIPC   PO430026   8.715   0.342   2.946 -0.2117 -0.0787  0.3235
    1DIPC   GL130027   8.499   0.433   3.363  0.1601 -0.3645  0.1725
    1DIPC   GL230028   8.593   0.752   3.487 -0.2925  0.1190  0.3077
    1DIPC   C1A30029   8.374   0.419   3.755  0.2094  0.0435 -0.0159
    1DIPC   D2A30030   8.474   0.434   4.201  0.1587  0.1938 -0.0191
    1DIPC   D3A30031   8.402   0.341   4.659  0.0886 -0.3574 -0.0392
    1DIPC   C4A30032   8.493   0.669   4.971 -0.1576  0.0353 -0.2333
    1DIPC   C1B30033   8.598   0.884   3.973  0.1857  0.1661  0.3181
    1DIPC   D2B30034   8.638   0.798   4.478  0.0713 -0.2437 -0.0943
    1DIPC   D3B30035   9.180   0.733   4.422  0.0155  0.0497  0.3236
    1DIPC   C4B30036   9.327   1.037   4.675 -0.3291 -0.1561  0.3317
    1DIPC   NC330037  12.921  10.164   3.512  0.1722 -0.1254  0.0562
    1DIPC   PO430038  13.294  10.418   3.500 -0.0685 -0.1256 -0.1746
    1DIPC   GL130039  13.560  10.415   3.810 -0.2644  0.0306 -0.1608
    1DIPC   GL230040  13.795  10.265   3.762 -0.1095 -0.2837 -0.1172
    1DIPC   C1A30041  13.713  10.610   4.227  0.3161  0.2463  0.1531
    1DIPC   D2A30042  13.743  10.912   4.583 -0.0257  0.1822 -0.1769
    1DIPC   D3A30043  13.457  11.055   4.986  0.0903  0.0701 -0.0958
    1DIPC   C4A30044  13.084  10.835   5.148 -0.2007  0.0340 -0.3145
    1DIPC   C1B30045  13.815   9.887   3.957  0.0203 -0.0236  0.0353
    1DIPC   D2B30046  13.775   9.482   4.017  0.0452  0.3267  0.2027
    1DIPC   D3B30047  14.034   9.659   4.345  0.0350  0.0411  0.0487
    1DIPC   C4B30048  14.190   9.316   4.390 -0.1478 -0.1358 -0.3798
    1DIPC   NC330049  18.899  12.294   2.248 -0.0442  0.1649 -0.1985
    1DIPC   PO430050  18.570  12.375   2.627  0.2718  0.1949 -0.1158
    1DIPC   GL130051  18.697  12.501   3.004  0.2467  0.2001  0.1530
    1DIPC   GL230052  19.064  12.549   3.041  0.0576 -0.0543  0.1066
    1DIPC   C1A30053  18.537  12.408   3.499  0.2673  0.0298  0.1585
    1DIPC   D2A30054  18.475  12.519   3.941  0.1332  0.3106 -0.1599
    1DIPC   D3A30055  18.427  12.563   4.376  0.1129 -0.1538  0.2790
    1DIPC   C4A30056  18.464  12.331   4.685 -0.0402 -0.3265 -0.2456
    1DIPC   C1B30057  19.022  12.853   3.404  0.0356  0.2877 -0.0597
    1DIPC   D2B30058  19.010  12.865   3.861  0.0400 -0.0419 -0.2183
    1DIPC   D3B30059  19.001  12.457   3.887  0.0642  0.3431  0.0017
    1DIPC   C4B30060  18.885  12.226   4.305 -0.0384 -0.0897  0.1506
    1DIPC   NC330061  24.068  23.175   2.973  0.0964 -0.0898 -0.0875
    1DIPC   PO430062  24.476  23.353   3.138  0.2118  0.2320 -0.1196
    1DIPC   GL130063  24.486  23.644   3.497  0.0327 -0.2180  0.0234
    1DIPC   GL230064  24.766  23.926   3.530 -0.0355  0.1643 -0.1616
    1DIPC   C1A30065  24.509  23.636   3.936  0.3136  0.1874 -0.1046
    1DIPC   D2A30066  24.501  23.212   4.156  0.1134  0.0954  0.0250
    1DIPC   D3A30067  24.820  23.014   4.057  0.0342 -0.1765  0.0145
    1DIPC   C4A30068  25.060  23.414   4.270  0.1518 -0.1057  0.4153
    1DIPC   C1B30069  25.156  23.930   3.841  0.0472  0.2569 -0.1332
    1DIPC   D2B30070  25.406  23.822   4.241 -0.2477 -0.2782  0.0109
    1DIPC   D3B30071  25.449  23.484   3.996  0.2715 -0.0516  0.1253
    1DIPC   C4B30072  25.911  23.380   4.060 -0.1345  0.1362  0.1143
    1DIPC   NC330073  24.060  15.078   1.764  0.1105  0.0970  0.1559
    1DIPC   PO430074  24.195  14.995   2.278  0.3430  0.1771  0.1727
    1DIPC   GL130075  24.184  14.822   2.794  0.2268  0.0283 -0.0691
    1DIPC   GL230076  24.457  14.927   2.911 -0.0734  0.0514  0.0762
    1DIPC   C1A30077  24.364  14.478   3.179 -0.4602  0.1929  0.0167
    1DIPC   D2A30078  24.147  14.093   3.358  0.0297 -0.2573  0.0949
    1DIPC   D3A30079  24.390  14.370   3.682 -0.1248  0.0103  0.1147
    1DIPC   C4A30080  24.354  14.401   4.029  0.2594  0.2270  0.1249
    1DIPC   C1B30081  24.484  14.904   3.375  0.2111  0.0740 -0.0836
    1DIPC   D2B30082  24.418  14.893   3.826 -0.0029 -0.4905 -0.1916
    1DIPC   D3B30083  24.756  14.762   4.031  0.0560  0.1371 -0.0701
    1DIPC   C4B30084  25.188  14.782   3.906  0.2529  0.0719 -0.3048
    1DIPC   NC330085  25.303   6.965   2.926  0.0263 -0.2033  0.2735
    1DIPC   PO430086  25.182   6.519   2.919 -0.2703  0.0079 -0.2012
    1DIPC   GL130087  25.274   6.537   3.306 -0.2360 -0.0080 -0.0439
    1DIPC   GL230088  25.391   6.733   3.424  0.2472 -0.3643 -0.0849
    1DIPC   C1A30089  25.202   6.382   3.735  0.2370  0.0744 -0.1268
    1DIPC   D2A30090  25.370   6.061   3.941 -0.1629 -0.1089  0.1423
    1DIPC   D3A30091  25.272   6.247   4.400  0.1565 -0.0969 -0.0806
    1DIPC   C4A30092  24.790   6.382   4.633  0.0677 -0.0441  0.1305
    1DIPC   C1B30093  25.328   6.896   3.826 -0.2698  0.1847  0.1028
    1DIPC   D2B30094  25.498   7.248   4.046 -0.1999 -0.0370  0.1322
    1DIPC   D3B30095  25.083   7.377   4.284  0.1950  0.0762 -0.0920
    1DIPC   C4B30096  24.822   7.580   4.085  0.1130  0.2277  0.0435
    1DIPC   NC330097  12.112  16.118   3.027  0.0622 -0.0026  0.1965
    1DIPC   PO430098  12.259  15.640   3.057  0.2109 -0.1673 -0.0460
    1DIPC   GL130099  12.429  15.910   3.379 -0.0256 -0.2305 -0.0361
    1DIPC   GL230100  12.193  15.985   3.576 -0.1434 -0.2427  0.2887
    1DIPC   C1A30101  12.594  16.016   3.810  0.3369  0.2245  0.0993
    1DIPC   D2A30102  12.713  16.027   4.221 -0.0040  0.0699  0.4422
    1DIPC   D3A30103  13.074  16.253   4.354  0.0058 -0.0988  0.0418
    1DIPC   C4A30104  13.080  16.308   4.822  0.3305 -0.0465 -0.0879
    1DIPC   C1B30105  11.983  15.921   4.012  0.0403  0.0564  0.1407
    1DIPC   D2B30106  11.842  15.599   4.350  0.1516 -0.0042 -0.1018
    1DIPC   D3B30107  11.554  15.320   4.266  0.3650  0.0129  0.0166
    1DIPC   C4B30108  11.215  15.269   4.640 -0.2630  0.1767 -0.0777
    1DIPC   NC330109  17.216  17.582   2.245 -0.2990  0.0449 -0.0635
    1DIPC   PO430110  17.539  17.297   2.379 -0.0057  0.0878  0.0361
    1DIPC   GL130111  17.660  17.181   2.868 -0.1524  0.1938 -0.1294
    1DIPC   GL230112  17.465  16.923   2.977  0.0840  0.2243 -0.2718
    1DIPC   C1A30113  17.710  17.298   3.370  0.0213 -0.4234 -0.3391
    1DIPC   D2A30114  17.836  17.577   3.680 -0.0247  0.2831  0.2635
    1DIPC   D3A30115  17.948  17.939   3.498  0.2527  0.1552 -0.2488
    1DIPC   C4A30116  17.711  18.296   3.631 -0.4240  0.2185  0.2333
    1DIPC   C1B30117  17.246  17.242   3.181  0.1284  0.1639  0.0531
    1DIPC   D2B30118  16.993  17.558   3.117  0.2615  0.1074 -0.3534
    1DIPC   D3B30119  17.159  17.615   3.506 -0.2383 -0.1274 -0.0514
    1DIPC   C4B30120  17.355  17.922   3.718  0.1284 -0.2810 -0.1786
    1DIPC   NC330121   1.862   1.823   3.021  0.1090 -0.0779 -0.0411
    1DIPC   PO430122   1.857   1.837   3.497  0.0828 -0.2383 -0.2255
    1DIPC   GL130123   1.967   1.583   3.822 -0.1865  0.0907  0.2402
    1DIPC   GL230124   2.111   1.726   4.091 -0.1616  0.0239  0.0650
    1DIPC   C1A30125   1.793   1.354   4.133 -0.1118  0.1310 -0.0447
    1DIPC   D2A30126   1.572   1.305   4.455 -0.1513 -0.2783 -0.2655
    1DIPC   D3A30127   1.345   1.046   4.172 -0.2524 -0.1640  0.3105
    1DIPC   C4A30128   1.278   0.599   4.210  0.1229 -0.0065 -0.0134
    1DIPC   C1B30129   2.328   1.466   4.160 -0.2828  0.0406  0.0972
    1DIPC   D2B30130   2.719   1.459   4.296 -0.1262 -0.0446 -0.1023
    1DIPC   D3B30131   2.557   1.146   4.524  0.1849 -0.5930  0.0233
    1DIPC   C4B30132   2.497   1.154   5.084  0.1761  0.1644 -0.0745
    1DIPC   NC330133   8.117  28.066   2.879 -0.2424 -0.0832  0.0207
    1DIPC   PO430134   8.186  28.498   2.909  0.2287  0.0756 -0.3249
    1DIPC   GL130135   8.024  28.287   3.317  0.1788 -0.0495 -0.0364
    1DIPC   GL230136   7.730  28.167   3.205  0.1086 -0.1258  0.1083
    1DIPC   C1A30137   8.066  28.070   3.703  0.0649 -0.0035  0.0653
    1DIPC   D2A30138   8.080  28.064   4.120 -0.0880 -0.1885  0.2903
    1DIPC   D3A30139   8.163  27.735   4.563 -0.0558 -0.3760  0.3425
    1DIPC   C4A30140   8.288  27.286   4.485  0.3202 -0.2035  0.0571
    1DIPC   C1B30141   7.532  28.338   3.674  0.1496  0.0520  0.0227
    1DIPC   D2B30142   7.626  28.423   4.099 -0.4156  0.0533 -0.0583
    1DIPC   D3B30143   7.505  28.137   4.372  0.3395 -0.1582 -0.0693
    1DIPC   C4B30144   7.745  27.942   4.667 -0.3127 -0.4346  0.1313
    1DIPC   NC330145  16.969  21.609   2.212  0.0884  0.3958  0.0745
    1DIPC   PO430146  16.821  21.600   2.557  0.0439 -0.3214 -0.3699
    1DIPC   GL130147  16.672  21.482   2.933 -0.2822  0.1974  0.4153
    1DIPC   GL230148  16.358  21.401   3.032 -0.2203  0.0870 -0.1446
    1DIPC   C1A30149  16.669  21.640   3.369  0.2192  0.1400 -0.3506
    1DIPC   D2A30150  16.553  21.849   3.777 -0.1801  0.0488 -0.0119
    1DIPC   D3A30151  16.244  21.677   4.005  0.1899  0.2047 -0.1718
    1DIPC   C4A30152  15.949  21.479   3.821  0.2245  0.1153  0.0043
    1DIPC   C1B30153  15.890  21.433   3.140 -0.3698  0.2602 -0.0717
    1DIPC   D2B30154  15.617  21.649   3.017  0.2313 -0.0884 -0.0321
    1DIPC   D3B30155  15.600  21.751   3.434 -0.1686 -0.1372 -0.0809
    1DIPC   C4B30156  15.492  22.017   3.647  0.0237 -0.1412 -0.5602
    1DIPC   NC330157  27.287   8.923   2.331  0.2825  0.0453  0.3402
    1DIPC   PO430158  27.277   8.594   2.539  0.0976 -0.2854 -0.4088
    1DIPC   GL130159  27.099   8.523   2.857  0.0951 -0.0273 -0.3091
    1DIPC   GL230160  27.181   8.227   2.959  0.1218  0.4541  0.0985
    1DIPC   C1A30161  26.853   8.556   3.221  0.0359 -0.0776  0.0969
    1DIPC   D2A30162  26.912   8.417   3.591  0.1332  0.2017  0.2058
    1DIPC   D3A30163  27.277   8.341   3.428 -0.3451 -0.1037 -0.1178
    1DIPC   C4A30164  27.483   8.752   3.284 -0.3074  0.1455 -0.0620
    1DIPC   C1B30165  26.996   7.948   3.332  0.0906 -0.2501  0.0377
    1DIPC   D2B30166  26.776   7.825   3.717 -0.1084 -0.2769 -0.4715
    1DIPC   D3B30167  27.022   8.123   3.999  0.0468 -0.3112  0.3693
    1DIPC   C4B30168  26.978   8.684   4.011  0.0713 -0.0354 -0.0791
    1DIPC   NC330169   8.842   5.795   2.749  0.2228  0.4075 -0.1725
    1DIPC   PO430170   8.946   5.486   3.089 -0.1638  0.0015 -0.4426
    1DIPC   GL130171   9.093   5.415   3.515  0.3709 -0.3985  0.2786
    1DIPC   GL230172   9.267   5.659   3.666 -0.0222  0.2161 -0.1195
    1DIPC   C1A30173   9.023   5.138   3.856 -0.0136 -0.0080 -0.1600
    1DIPC   D2A30174   8.988   4.769   4.120  0.2298  0.0170 -0.1171
    1DIPC   D3A30175   8.600   4.954   4.042  0.1188  0.1552 -0.1083
    1DIPC   C4A30176   8.378   5.203   4.298 -0.1961  0.2021 -0.1273
    1DIPC   C1B30177   8.926   5.762   3.986  0.0882  0.2380  0.0769
    1DIPC   D2B30178   8.463   5.693   4.108 -0.0094 -0.3112 -0.0741
    1DIPC   D3B30179   8.751   5.580   4.430  0.2067 -0.2604  0.0725
    1DIPC   C4B30180   9.111   5.321   4.446  0.1747 -0.3865  0.0450
    1DIPC   NC330181  13.641  29.939   2.928 -0.1682  0.1641 -0.2542
    1DIPC   PO430182  13.433  29.866   3.306  0.0515 -0.0506 -0.1576
    1DIPC   GL130183  13.636  30.113   3.686 -0.0762  0.2174 -0.1649
    1DIPC   GL230184  13.653  29.912   3.778  0.1002  0.0180 -0.2080
    1DIPC   C1A30185  13.974   0.016   3.712 -0.0197 -0.1817 -0.2349
    1DIPC   D2A30186  13.992   0.400   3.905  0.1866 -0.1998  0.4319
    1DIPC   D3A30187  14.013   0.787   4.190 -0.3980  0.2312 -0.3904
    1DIPC   C4A30188  14.081   0.743   4.633 -0.2187 -0.1430  0.1479
    1DIPC   C1B30189  13.649  29.835   4.164  0.1192 -0.0477 -0.0960
    1DIPC   D2B30190  13.733  29.788   4.505 -0.0996  0.0493 -0.0414
    1DIPC   D3B30191  14.209  30.024   4.713  0.1165  0.1021  0.1483
    1DIPC   C4B30192  14.486  29.687   4.930  0.1125  0.1955 -0.0810
    1DIPC   NC330193   9.148  23.655   2.421  0.0685  0.4583  0.2489
    1DIPC   PO430194   9.341  23.217   2.311 -0.1209  0.1136  0.0944
    1DIPC   GL130195   9.436  23.003   2.656  0.2430  0.0250 -0.2122
    1DIPC   GL230196   9.396  23.226   2.843  0.2099  0.0331  0.0303
    1DIPC   C1A30197   9.135  22.764   2.970 -0.3994  0.0203  0.0729
    1DIPC   D2A30198   9.009  22.802   3.399 -0.1532 -0.0109 -0.0507
    1DIPC   D3A30199   9.324  22.433   3.249  0.0255  0.0799  0.1578
    1DIPC   C4A30200   9.392  22.213   2.889  0.1849 -0.1723 -0.0343
    1DIPC   C1B30201   9.335  23.125   3.268 -0.0094  0.3172 -0.0040
    1DIPC   D2B30202   9.640  23.230   3.646  0.1656  0.4282  0.0818
    1DIPC   D3B30203   9.540  23.119   4.065  0.0150 -0.0681  0.0520
    1DIPC   C4B30204   9.251  23.082   4.352  0.0591 -0.1381 -0.1673
    1DIPC   NC330205  25.191   3.375   3.872 -0.0509 -0.3380 -0.0536
    1DIPC   PO430206  25.525   3.697   4.000  0.0708  0.4568 -0.2775
    1DIPC   GL130207  25.447   3.268   4.381  0.0868 -0.0858  0.3899
    1DIPC   GL230208  25.288   3.071   4.228 -0.1477 -0.0428  0.0959
    1DIPC   C1A30209  25.435   3.248   4.823 -0.3288 -0.0685  0.1916
    1DIPC   D2A30210  25.632   3.200   5.227 -0.2065  0.0981  0.2818
    1DIPC   D3A30211  25.648   3.661   5.193 -0.2303  0.0227 -0.0203
    1DIPC   C4A30212  25.276   3.761   5.092 -0.3098  0.0778  0.2642
    1DIPC   C1B30213  25.414   2.791   4.544 -0.0088 -0.1565 -0.1616
    1DIPC   D2B30214  25.174   2.480   4.699  0.1283 -0.0672  0.2088
    1DIPC   D3B30215  24.748   2.366   4.992  0.2524  0.2950 -0.1471
    1DIPC   C4B30216  24.416   2.350   4.752  0.3585  0.1328  0.5186
    1DIPC   NC330217   5.233  27.139   3.062  0.2852 -0.0059 -0.1419
    1DIPC   PO430218   4.872  27.228   3.326  0.1451 -0.0747  0.0153
    1DIPC   GL130219   4.879  27.217   3.695  0.2313 -0.2389 -0.3042
    1DIPC   GL230220   4.928  27.409   3.960 -0.1078  0.1953  0.0142
    1DIPC   C1A30221   5.249  27.080   4.053  0.1427 -0.0977  0.0750
    1DIPC   D2A30222   5.274  26.793   4.373 -0.0875  0.2899 -0.2037
    1DIPC   D3A30223   5.574  26.803   4.647 -0.0260 -0.1815 -0.2087
    1DIPC   C4A30224   5.579  26.944   5.092 -0.0727 -0.0607 -0.1698
    1DIPC   C1B30225   4.997  27.422   4.356 -0.0643  0.1432 -0.0195
    1DIPC   D2B30226   5.196  27.256   4.780 -0.2076 -0.1085  0.0268
    1DIPC   D3B30227   5.576  27.388   4.837 -0.2019  0.3236 -0.2029
    1DIPC   C4B30228   5.648  27.484   5.297  0.0953  0.2751  0.3511
    1DIPC   NC330229  10.960  27.902   2.670 -0.1332  0.2413 -0.0132
    1DIPC   PO430230  10.742  28.031   2.989 -0.1083  0.3884 -0.2761
    1DIPC   GL130231  10.843  27.828   3.406  0.3033 -0.0396 -0.1120
    1DIPC   GL230232  11.218  27.689   3.564  0.1822 -0.0025 -0.0610
    1DIPC   C1A30233  10.767  27.525   3.742 -0.1942  0.1203 -0.0728
    1DIPC   D2A30234  10.817  27.094   3.839  0.3273 -0.1056 -0.1654
    1DIPC   D3A30235  11.079  26.836   4.036 -0.0002 -0.2622  0.1386
    1DIPC   C4A30236  11.448  26.843   4.339 -0.1156  0.0073 -0.3599
    1DIPC   C1B30237  11.696  27.571   3.564 -0.1189 -0.0687 -0.1827
    1DIPC   D2B30238  11.864  27.227   3.571  0.0458  0.0883  0.0998
    1DIPC   D3B30239  11.743  26.828   3.711  0.2396  0.1373  0.1211
    1DIPC   C4B30240  11.540  26.744   3.367  0.0610 -0.1047 -0.0189
    1DIPC   NC330241   2.841   9.656   2.771 -0.2517  0.2550  0.1004
    1DIPC   PO430242   2.477   9.489   2.897 -0.1022  0.4386  0.1374
    1DIPC   GL130243   2.453   9.133   3.185 -0.0528 -0.0663  0.0855
    1DIPC   GL230244   2.331   9.409   3.504 -0.2827  0.1003  0.0329
    1DIPC   C1A30245   2.323   8.863   3.449 -0.0869 -0.0152  0.2258
    1DIPC   D2A30246   2.409   8.723   3.876 -0.0162  0.0362  0.0012
    1DIPC   D3A30247   2.389   8.260   3.867 -0.0260 -0.1617 -0.0515
    1DIPC   C4A30248   2.328   7.973   3.489 -0.1067 -0.2517 -0.2714
    1DIPC   C1B30249   2.438   9.210   3.971  0.1945 -0.0423  0.2697
    1DIPC   D2B30250   2.795   9.076   4.165  0.0614 -0.0699 -0.2449
    1DIPC   D3B30251   2.695   9.505   4.431  0.0074  0.0543  0.0664
    1DIPC   C4B30252   2.441   9.353   4.825 -0.1702 -0.2197  0.1368
    1DIPC   NC330253  25.509  28.537   3.633 -0.1013  0.2594  0.2608
    1DIPC   PO430254  25.901  28.457   3.507 -0.1360  0.1470 -0.3028
    1DIPC   GL130255  25.889  28.307   3.956  0.0516  0.2670  0.1212
    1DIPC   GL230256  25.811  27.961   4.122 -0.0863  0.0707  0.1799
    1DIPC   C1A30257  26.136  28.299   4.347  0.0572 -0.2456  0.0300
    1DIPC   D2A30258  25.999  28.235   4.763 -0.0485  0.1266 -0.2401
    1DIPC   D3A30259  26.326  28.354   4.805 -0.0052 -0.2502 -0.1846
    1DIPC   C4A30260  26.612  28.885   4.837  0.2091  0.2165  0.1789
    1DIPC   C1B30261  26.032  27.785   4.492 -0.2669 -0.0607 -0.2463
    1DIPC   D2B30262  26.361  27.873   4.744  0.2728 -0.0902  0.0992
    1DIPC   D3B30263  26.237  28.095   5.192  0.0057 -0.1510 -0.1172
    1DIPC   C4B30264  26.447  28.489   5.310  0.2917  0.0220  0.2649
    1DIPC   NC330265  17.491  12.561   2.869 -0.2101 -0.2418 -0.1830
    1DIPC   PO430266  17.854  12.275   2.883 -0.0610 -0.0543 -0.1516
    1DIPC   GL130267  17.812  11.999   3.178 -0.1245 -0.3762 -0.0046
    1DIPC   GL230268  18.024  12.121   3.361 -0.0117 -0.1020  0.0804
    1DIPC   C1A30269  17.805  11.660   3.472 -0.0535  0.0641 -0.0747
    1DIPC   D2A30270  18.155  11.511   3.793  0.1175 -0.1475  0.1064
    1DIPC   D3A30271  18.004  11.520   4.233 -0.0228  0.0250  0.0350
    1DIPC   C4A30272  18.032  11.144   4.432  0.1094  0.0976 -0.0752
    1DIPC   C1B30273  18.011  12.507   3.561 -0.0389  0.2070  0.1843
    1DIPC   D2B30274  17.984  12.719   3.993  0.1242 -0.1993  0.1757
    1DIPC   D3B30275  17.910  12.295   4.139  0.0690  0.0265 -0.0966
    1DIPC   C4B30276  17.900  11.913   3.973  0.3426  0.2551  0.1000
    1DIPC   NC330277  11.071  15.866   2.477  0.1293 -0.2185 -0.0182
    1DIPC   PO430278  10.719  15.971   2.716  0.1795 -0.1219 -0.0845
    1DIPC   GL130279  10.951  16.058   2.985 -0.0298  0.1761  0.0307
    1DIPC   GL230280  10.939  16.274   3.209  0.0462 -0.0318  0.0447
    1DIPC   C1A30281  11.128  15.830   3.423  0.1011  0.1071 -0.2228
    1DIPC   D2A30282  11.444  15.549   3.604  0.2099 -0.0628 -0.0469
    1DIPC   D3A30283  11.510  15.725   3.943  0.2368 -0.1752 -0.0113
    1DIPC   C4A30284  11.325  15.740   4.318  0.1289 -0.3014 -0.1792
    1DIPC   C1B30285  10.686  16.280   3.554 -0.0207 -0.0843  0.0159
    1DIPC   D2B30286  10.677  16.430   4.028 -0.1174  0.0179  0.1356
    1DIPC   D3B30287  10.375  16.467   4.420  0.1668 -0.0908  0.0281
    1DIPC   C4B30288  10.113  16.340   4.708  0.1074  0.1154  0.0418
    1DIPC   NC330289   2.908  25.876   2.941  0.1769 -0.0474 -0.0392
    1DIPC   PO430290   2.526  26.070   3.257  0.0150 -0.1521 -0.1341
    1DIPC   GL130291   2.246  25.984   3.655 -0.1547 -0.0874  0.0715
    1DIPC   GL230292   1.957  25.908   3.677  0.3842  0.0412  0.1962
    1DIPC   C1A30293   2.243  26.042   4.103  0.1671 -0.4061  0.5325
    1DIPC   D2A30294   2.469  26.204   4.492 -0.2304  0.0358  0.0602
    1DIPC   D3A30295   2.281  26.280   4.892  0.2002 -0.2423 -0.1863
    1DIPC   C4A30296   2.291  26.670   5.121 -0.3272  0.1007 -0.1376
    1DIPC   C1B30297   2.259  25.516   3.718 -0.2726  0.1770 -0.0653
    1DIPC   D2B30298   2.040  25.133   4.011 -0.2459  0.0144 -0.1647
    1DIPC   D3B30299   1.853  25.548   4.046 -0.3721 -0.0157  0.3126
    1DIPC   C4B30300   1.930  25.785   4.429  0.2493 -0.0707  0.0415
    1DIPC   NC330301  23.358  15.742   2.239  0.1107 -0.1253  0.2985
    1DIPC   PO430302  23.437  15.280   2.332 -0.1510 -0.0716 -0.0600
    1DIPC   GL130303  23.289  15.415   2.684 -0.1765  0.3004  0.2481
    1DIPC   GL230304  23.146  15.643   2.744  0.0669  0.3267 -0.0167
    1DIPC   C1A30305  23.111  15.219   3.111 -0.2172  0.1454 -0.2374
    1DIPC   D2A30306  23.136  15.302   3.494  0.6672 -0.1157  0.1838
    1DIPC   D3A30307  22.817  15.648   3.609 -0.2305  0.0007  0.0215
    1DIPC   C4A30308  22.800  16.045   3.762 -0.0731  0.1642  0.1166
    1DIPC   C1B30309  23.084  15.758   3.176 -0.0542  0.1078  0.1892
    1DIPC   D2B30310  23.238  15.863   3.600  0.0606 -0.1882 -0.0317
    1DIPC   D3B30311  23.204  16.085   4.010  0.0682 -0.0917 -0.3476
    1DIPC   C4B30312  23.597  16.157   4.091  0.0087 -0.1464 -0.0917
    1DIPC   NC330313  22.988  21.127   2.193  0.0402  0.0008 -0.0216
    1DIPC   PO430314  23.442  21.213   2.151  0.0795 -0.1332 -0.0112
    1DIPC   GL130315  23.652  21.069   2.524 -0.3047  0.0296  0.0061
    1DIPC   GL230316  23.634  21.053   2.788  0.2070 -0.1599 -0.0966
    1DIPC   C1A30317  24.124  20.963   2.788  0.1100 -0.1541 -0.2645
    1DIPC   D2A30318  24.351  21.210   3.038 -0.1377  0.0669 -0.1002
    1DIPC   D3A30319  24.229  21.068   3.435 -0.1109 -0.3132 -0.1339
    1DIPC   C4A30320  24.403  21.105   3.859 -0.0003  0.2055 -0.1019
    1DIPC   C1B30321  23.784  21.162   3.195 -0.2255  0.0216  0.0948
    1DIPC   D2B30322  23.655  21.094   3.642 -0.1114 -0.0137  0.4164
    1DIPC   D3B30323  23.906  20.739   3.610 -0.2029 -0.1519  0.1051
    1DIPC   C4B30324  24.411  20.656   3.655  0.1196  0.3764  0.0876
    1DIPC   NC330325  26.066   2.584   3.280  0.0173 -0.1552 -0.0355
    1DIPC   PO430326  26.087   2.564   3.634 -0.2824 -0.0837 -0.1262
    1DIPC   GL130327  26.395   2.560   3.971 -0.0458  0.3235  0.1699
    1DIPC   GL230328  26.611   2.475   3.914  0.2051  0.1698  0.1363
    1DIPC   C1A30329  26.346   2.739   4.407  0.0424 -0.1916  0.1510
    1DIPC   D2A30330  26.375   2.835   4.840 -0.2330  0.2259 -0.0424
    1DIPC   D3A30331  26.369   2.343   5.004 -0.3117 -0.3225  0.3064
    1DIPC   C4A30332  26.305   2.295   5.467  0.1080  0.1271 -0.2498
    1DIPC   C1B30333  26.451   2.210   4.315 -0.1511  0.1545 -0.1698
    1DIPC   D2B30334  26.524   2.013   4.722  0.0255 -0.0965 -0.2996
    1DIPC   D3B30335  26.498   1.869   5.112  0.0272  0.1466  0.0011
    1DIPC   C4B30336  26.719   2.057   5.437 -0.1164 -0.0153 -0.2100
    1DIPC   NC330337  11.916  18.535   2.035 -0.1895  0.0343  0.1065
    1DIPC   PO430338  11.794  18.678   2.406 -0.0392 -0.0357  0.0388
    1DIPC   GL130339  11.708  18.720   2.775  0.0286  0.0462  0.0427
    1DIPC   GL230340  11.411  18.440   2.980  0.0363 -0.2291 -0.2344
    1DIPC   C1A30341  11.688  18.778   3.221  0.2607 -0.2459 -0.0995
    1DIPC   D2A30342  11.863  18.781   3.696  0.0213 -0.0238 -0.0680
    1DIPC   D3A30343  11.690  19.027   4.048 -0.1980  0.2736  0.1786
    1DIPC   C4A30344  11.254  19.079   4.102  0.3506  0.1201  0.1011
    1DIPC   C1B30345  11.216  18.541   3.249 -0.1482  0.1459 -0.1668
    1DIPC   D2B30346  11.160  18.472   3.676  0.2219  0.1107 -0.2023
    1DIPC   D3B30347  11.277  18.809   3.657 -0.0975  0.0728 -0.1073
    1DIPC   C4B30348  10.973  19.095   3.669 -0.2996 -0.0888 -0.3549
    1DIPC   NC330349   4.967   1.512   2.891  0.2366 -0.4177  0.0622
    1DIPC   PO430350   4.954   1.740   3.376  0.0150  0.1398  0.0100
    1DIPC   GL130351   4.812   1.871   3.909 -0.0673  0.1635 -0.0065
    1DIPC   GL230352   5.141   1.851   4.155  0.1459  0.0407 -0.1130
    1DIPC   C1A30353   4.570   1.983   4.312 -0.0320  0.2500  0.1318
    1DIPC   D2A30354   4.568   1.814   4.692  0.2536 -0.3563 -0.2000
    1DIPC   D3A30355   4.198   1.770   4.996  0.1831  0.0967 -0.1019
    1DIPC   C4A30356   3.930   1.980   5.313  0.0615 -0.0205 -0.0389
    1DIPC   C1B30357   4.876   1.564   4.277  0.1933  0.0300  0.0514
    1DIPC   D2B30358   4.409   1.592   4.037  0.0303  0.4214  0.0584
    1DIPC   D3B30359   4.163   1.676   4.418  0.0604  0.2448 -0.1147
    1DIPC   C4B30360   4.097   1.350   4.755  0.1720  0.0196 -0.1504
    1DIPC   NC330361  14.710  20.883   2.354 -0.2387  0.2604  0.0489
    1DIPC   PO430362  14.472  21.310   2.449 -0.0532  0.1730 -0.4196
    1DIPC   GL130363  14.299  21.081   2.820 -0.0186 -0.3666  0.0729
    1DIPC   GL230364  14.612  20.834   2.838 -0.2716 -0.4159  0.1984
    1DIPC   C1A30365  14.164  20.711   2.862  0.0616 -0.2708 -0.1757
    1DIPC   D2A30366  14.038  20.367   3.161 -0.0407  0.1521 -0.0514
    1DIPC   D3A30367  14.097  20.499   3.453 -0.0924 -0.1219  0.0468
    1DIPC   C4A30368  13.784  20.427   3.862 -0.2701  0.0998 -0.1400
    1DIPC   C1B30369  14.533  21.015   3.306 -0.1738  0.0585  0.3365
    1DIPC   D2B30370  14.766  21.318   3.594  0.3050  0.0661  0.0243
    1DIPC   D3B30371  15.016  21.146   3.938 -0.1854  0.0081 -0.0869
    1DIPC   C4B30372  14.970  20.685   4.085  0.1656 -0.0289 -0.2918
    1DIPC   NC330373  25.823  22.424   2.024  0.1316 -0.1900  0.1694
    1DIPC   PO430374  25.387  22.603   2.095  0.0486  0.0255 -0.2471
    1DIPC   GL130375  25.388  22.391   2.494 -0.3526 -0.2523  0.2181
    1DIPC   GL230376  25.160  22.236   2.649 -0.1362  0.2358  0.0468
    1DIPC   C1A30377  25.579  22.356   2.868  0.0343  0.1025 -0.0385
    1DIPC   D2A30378  25.718  22.034   3.117 -0.0369 -0.3184  0.0310
    1DIPC   D3A30379  25.797  21.959   3.529  0.1778  0.0916 -0.1206
    1DIPC   C4A30380  26.185  21.834   3.773  0.1749  0.0265  0.2041
    1DIPC   C1B30381  24.891  22.227   3.084  0.1128 -0.1273  0.0619
    1DIPC   D2B30382  25.068  22.013   3.456 -0.0462  0.0120  0.0225
    1DIPC   D3B30383  25.181  21.800   3.716 -0.1008 -0.2851 -0.1395
    1DIPC   C4B30384  25.053  21.841   4.100  0.1558 -0.1074  0.0036
    1DIPC   NC330385  15.389  21.288   2.020 -0.3509 -0.0068  0.0395
    1DIPC   PO430386  15.081  21.230   2.403  0.1654  0.0755 -0.1033
    1DIPC   GL130387  14.917  21.343   2.790 -0.1645 -0.0887 -0.0708
    1DIPC   GL230388  15.129  21.555   2.966  0.2017 -0.2917  0.0799
    1DIPC   C1A30389  14.612  21.467   3.078 -0.0548 -0.2077  0.0557
    1DIPC   D2A30390  14.360  21.815   3.076  0.0988 -0.2111 -0.2549
    1DIPC   D3A30391  14.457  21.712   3.490 -0.1516 -0.4906  0.1296
    1DIPC   C4A30392  14.550  22.009   3.840 -0.0619  0.1094 -0.1310
    1DIPC   C1B30393  15.229  21.336   3.355 -0.4256  0.1948  0.0087
    1DIPC   D2B30394  15.446  21.304   3.844  0.1069 -0.0031  0.1586
    1DIPC   D3B30395  15.714  20.980   3.694  0.0892 -0.1248  0.0941
    1DIPC   C4B30396  16.036  21.021   3.386 -0.1226 -0.0905 -0.0157
    1DIPC   NC330397  16.346   4.836   2.241 -0.1077 -0.1263  0.1535
    1DIPC   PO430398  16.634   4.727   1.926  0.1508  0.2882 -0.1172
    1DIPC   GL130399  16.772   4.727   2.333 -0.1292  0.0509 -0.0416
    1DIPC   GL230400  17.145   4.903   2.344 -0.0127  0.1548  0.0175
    1DIPC   C1A30401  16.823   4.896   2.784  0.0546 -0.1939  0.3015
    1DIPC   D2A30402  16.725   4.903   3.184 -0.0571  0.1216  0.1316
    1DIPC   D3A30403  16.853   5.326   3.169 -0.0285  0.2594  0.0478
    1DIPC   C4A30404  16.647   5.648   3.383 -0.2923 -0.2061  0.1733
    1DIPC   C1B30405  17.088   5.405   2.479 -0.2563  0.2796  0.2566
    1DIPC   D2B30406  17.109   5.799   2.564 -0.3227  0.1487  0.0824
    1DIPC   D3B30407  16.919   5.777   2.932 -0.3351 -0.2571  0.0600
    1DIPC   C4B30408  17.070   6.168   3.116 -0.5322  0.0323 -0.4055
    1DIPC   NC330409  19.124  16.874   2.027  0.0172 -0.3056  0.3283
    1DIPC   PO430410  19.314  16.787   2.380  0.1394  0.2881  0.1204
    1DIPC   GL130411  19.470  16.592   2.737  0.0779  0.1115  0.2131
    1DIPC   GL230412  19.693  16.693   2.725  0.0818 -0.0534  0.0373
    1DIPC   C1A30413  19.548  16.473   3.187 -0.3477  0.0093  0.0193
    1DIPC   D2A30414  19.809  16.520   3.567 -0.4926 -0.0405  0.3256
    1DIPC   D3A30415  19.416  16.393   3.649  0.0378 -0.0114  0.0269
    1DIPC   C4A30416  19.191  16.231   3.955  0.2784 -0.2259  0.1033
    1DIPC   C1B30417  19.769  17.069   2.964  0.3511  0.1044 -0.0267
    1DIPC   D2B30418  19.616  17.288   3.310  0.0255  0.1808 -0.1936
    1DIPC   D3B30419  19.574  16.922   3.423 -0.1508  0.0092 -0.1008
    1DIPC   C4B30420  19.220  16.843   3.182 -0.0771  0.3590  0.0368
    1DIPC   NC330421   6.278   2.803   3.730  0.1832 -0.3369 -0.1756
    1DIPC   PO430422   6.265   3.270   3.787  0.1544 -0.1622 -0.3353
    1DIPC   GL130423   6.381   3.459   4.161 -0.1148 -0.0851  0.2058
    1DIPC   GL230424   6.182   3.735   4.085 -0.2637  0.2729 -0.0440
    1DIPC   C1A30425   6.446   3.327   4.572 -0.0703  0.1933 -0.2037
    1DIPC   D2A30426   6.640   3.352   4.943 -0.3306  0.0072  0.1902
    1DIPC   D3A30427   6.625   3.682   5.239 -0.2342  0.1408 -0.1980
    1DIPC   C4A30428   6.389   4.094   5.387  0.1032  0.0429 -0.2472
    1DIPC   C1B30429   6.401   3.805   4.467 -0.2060 -0.0603 -0.0558
    1DIPC   D2B30430   6.377   3.888   4.841 -0.0357 -0.3175  0.4037
    1DIPC   D3B30431   6.167   4.209   4.876  0.0457 -0.1435 -0.1608
    1DIPC   C4B30432   6.114   4.591   5.108  0.3480 -0.0684  0.0676
    1DIPC   NC330433  10.173  26.555   2.130  0.0046  0.1640 -0.2461
    1DIPC   PO430434  10.094  26.145   2.298  0.0668 -0.2098  0.1006
    1DIPC   GL130435  10.337  26.283   2.719  0.2110 -0.0538  0.0545
    1DIPC   GL230436  10.641  26.108   2.887 -0.1092 -0.2647  0.0061
    1DIPC   C1A30437  10.593  26.620   2.966 -0.0121  0.1386  0.1522
    1DIPC   D2A30438  10.989  26.600   3.141  0.1253  0.2293 -0.1313
    1DIPC   D3A30439  11.198  27.082   2.951 -0.1581  0.1995  0.3115
    1DIPC   C4A30440  11.567  27.300   3.167 -0.0780 -0.0935  0.4306
    1DIPC   C1B30441  10.595  26.206   3.352  0.0177  0.2607 -0.0095
    1DIPC   D2B30442  10.901  26.558   3.622 -0.1627 -0.1722 -0.0923
    1DIPC   D3B30443  10.869  26.361   4.059 -0.0711  0.0770  0.4637
    1DIPC   C4B30444  11.302  26.387   4.235  0.1131  0.0420  0.0112
    1DIPC   NC330445   7.296   6.291   2.810  0.1133  0.3460  0.1595
    1DIPC   PO430446   7.096   6.288   3.199  0.0460 -0.1568 -0.0654
    1DIPC   GL130447   6.996   6.420   3.651  0.0343  0.2522 -0.0642
    1DIPC   GL230448   6.889   6.142   3.847 -0.2096  0.0027 -0.0861
    1DIPC   C1A30449   7.150   6.754   3.860 -0.3037  0.3083 -0.1076
    1DIPC   D2A30450   7.342   6.956   4.229 -0.0526 -0.4278 -0.0851
    1DIPC   D3A30451   7.874   6.856   4.253  0.4154  0.1505  0.1221
    1DIPC   C4A30452   8.009   6.755   4.623 -0.1269 -0.0086  0.0680
    1DIPC   C1B30453   7.095   5.816   4.140  0.4004 -0.0316  0.0520
    1DIPC   D2B30454   7.082   5.439   4.205  0.1444  0.1651  0.0842
    1DIPC   D3B30455   7.215   5.519   4.598  0.0340 -0.1797 -0.1760
    1DIPC   C4B30456   7.452   5.178   4.799  0.0872 -0.0754  0.0215
    1DIPC   NC330457   0.807   4.799   3.037 -0.3739  0.1069  0.6181
    1DIPC   PO430458   0.773   4.426   2.967  0.1797  0.0413 -0.0318
    1DIPC   GL130459   0.834   4.416   3.395  0.1751 -0.0980 -0.3376
    1DIPC   GL230460   1.039   4.730   3.497 -0.1865 -0.2072  0.4296
    1DIPC   C1A30461   0.641   4.439   3.812 -0.1623 -0.1815  0.1453
    1DIPC   D2A30462   0.323   4.439   4.177 -0.0157  0.1996 -0.1696
    1DIPC   D3A30463   0.397   4.276   4.633 -0.1538 -0.1381  0.0295
    1DIPC   C4A30464   0.179   3.881   4.815 -0.0522 -0.0305  0.1209
    1DIPC   C1B30465   1.095   4.522   3.920  0.0057 -0.1662  0.1537
    1DIPC   D2B30466   1.310   4.337   4.294 -0.1081 -0.3242 -0.0940
    1DIPC   D3B30467   1.589   4.097   4.709  0.1751 -0.1240  0.3068
    1DIPC   C4B30468   1.743   4.243   5.027 -0.1653 -0.0850 -0.1112
    1DIPC   NC330469  16.941  20.688   2.127  0.0428  0.0402 -0.0613
    1DIPC   PO430470  17.290  20.727   2.517  0.3464  0.1137  0.0511
    1DIPC   GL130471  17.228  21.061   2.876  0.0005 -0.1323  0.1020
    1DIPC   GL230472  16.937  20.996   2.942 -0.0694 -0.1146 -0.3188
    1DIPC   C1A30473  17.369  20.968   3.298  0.0998 -0.3534  0.1006
    1DIPC   D2A30474  17.428  20.932   3.731 -0.1140 -0.0088 -0.2492
    1DIPC   D3A30475  17.239  21.268   3.996 -0.0251 -0.0036  0.1001
    1DIPC   C4A30476  16.957  21.235   4.284 -0.0324 -0.1721 -0.2488
    1DIPC   C1B30477  16.565  21.059   3.312  0.1022  0.2145  0.0729
    1DIPC   D2B30478  16.461  21.316   3.712 -0.1132 -0.2023  0.1641
    1DIPC   D3B30479  16.417  21.228   4.144 -0.1274 -0.0939 -0.1287
    1DIPC   C4B30480  16.628  21.587   4.299  0.0654  0.0707 -0.2102
    1DIPC   NC330481   9.269   0.511   2.948 -0.2145  0.0192 -0.0608
    1DIPC   PO430482   9.556   0.408   3.342  0.0096  0.2208 -0.0778
    1DIPC   GL130483   9.701   0.241   3.731 -0.5099 -0.4457  0.2013
    1DIPC   GL230484  10.032   0.140   3.726  0.2256 -0.0758  0.1536
    1DIPC   C1A30485   9.825   0.302   4.216  0.2620  0.2387  0.0623
    1DIPC   D2A30486   9.610   0.320   4.537 -0.4372  0.1711 -0.0985
    1DIPC   D3A30487   9.794   0.450   4.963 -0.2036  0.0809 -0.2911
    1DIPC   C4A30488  10.190   0.332   5.005 -0.0274  0.0232  0.0891
    1DIPC   C1B30489  10.015  30.287   3.995 -0.0914  0.0282 -0.1311
    1DIPC   D2B30490  10.088  30.342   4.428  0.1674 -0.2329  0.1372
    1DIPC   D3B30491  10.433   0.144   4.481  0.1522  0.2156  0.3939
    1DIPC   C4B30492  10.639   0.078   4.205 -0.1165  0.0784 -0.1340
    1DIPC   NC330493  15.528   7.077   1.838 -0.1187  0.1853  0.1508
    1DIPC   PO430494  15.137   7.213   2.067  0.1157 -0.0245 -0.1589
    1DIPC   GL130495  15.187   7.325   2.518 -0.1207  0.0247  0.1773
    1DIPC   GL230496  15.089   7.573   2.631 -0.2431  0.1304 -0.1559
    1DIPC   C1A30497  14.883   7.189   2.917 -0.1105  0.1003  0.1065
    1DIPC   D2A30498  14.597   6.791   3.109  0.1485  0.2925 -0.1125
    1DIPC   D3A30499  14.134   6.847   3.167  0.3144 -0.0115 -0.2157
    1DIPC   C4A30500  13.860   6.449   3.412 -0.0283 -0.0724  0.3382
    1DIPC   C1B30501  15.265   7.743   3.017  0.1367 -0.2639 -0.0285
    1DIPC   D2B30502  15.498   7.984   3.171 -0.0079 -0.4509 -0.1629
    1DIPC   D3B30503  15.814   8.238   2.869 -0.1189 -0.3112  0.0027
    1DIPC   C4B30504  15.839   8.639   3.020 -0.2106 -0.2630 -0.1888
    1DIPC   NC330505  12.452  26.622   2.943 -0.0761 -0.0176  0.0409
    1DIPC   PO430506  12.558  27.138   3.038  0.0796 -0.1383  0.1327
    1DIPC   GL130507  12.497  27.129   3.527  0.0537 -0.0326  0.0864
    1DIPC   GL230508  12.591  27.350   3.752 -0.0137 -0.2651 -0.1285
    1DIPC   C1A30509  12.558  26.809   3.827  0.0060  0.0738  0.0472
    1DIPC   D2A30510  12.290  26.562   3.913  0.0015  0.0838  0.3585
    1DIPC   D3A30511  12.517  26.500   4.285 -0.2987 -0.1073  0.4545
    1DIPC   C4A30512  12.235  26.453   4.662  0.0174  0.0484 -0.0084
    1DIPC   C1B30513  12.401  27.256   4.067 -0.1787  0.0518 -0.0389
    1DIPC   D2B30514  12.159  26.884   4.209  0.0833 -0.3060  0.0039
    1DIPC   D3B30515  11.924  26.953   4.589 -0.0271  0.0564 -0.1878
    1DIPC   C4B30516  11.710  26.676   4.827 -0.1259  0.1671  0.4441
    1DIPC   NC330517   3.680   1.900   3.321 -0.0055  0.1538  0.2805
    1DIPC   PO430518   4.076   2.127   3.451  0.2351 -0.0680  0.1551
    1DIPC   GL130519   3.849   1.861   3.798  0.0158 -0.3281  0.2378
    1DIPC   GL230520   4.033   1.958   4.053  0.2431 -0.1426 -0.0343
    1DIPC   C1A30521   3.475   1.913   3.984  0.0419 -0.1607  0.1152
    1DIPC   D2A30522   3.004   1.908   4.135 -0.0252 -0.1228 -0.1362
    1DIPC   D3A30523   2.880   2.375   4.239  0.1600 -0.1005 -0.3783
    1DIPC   C4A30524   2.546   2.648   4.222  0.1433 -0.0112 -0.4112
    1DIPC   C1B30525   3.717   1.944   4.387  0.0688  0.0230  0.2104
    1DIPC   D2B30526   3.639   1.769   4.812 -0.0056 -0.0061  0.0399
    1DIPC   D3B30527   3.353   1.517   4.873 -0.0362 -0.0798  0.0095
    1DIPC   C4B30528   3.054   1.369   4.624  0.0138  0.3229 -0.0021
    1DIPC   NC330529  20.150   2.218   2.978 -0.0304 -0.0729  0.0143
    1DIPC   PO430530  19.766   2.300   2.929  0.0086  0.0637 -0.0631
    1DIPC   GL130531  19.687   2.436   3.302 -0.1148 -0.0731  0.1244
    1DIPC   GL230532  19.382   2.350   3.387 -0.0015 -0.1268  0.0090
    1DIPC   C1A30533  20.022   2.383   3.690 -0.1274 -0.1435  0.2524
    1DIPC   D2A30534  20.136   2.752   3.779 -0.0457 -0.0317 -0.0512
    1DIPC   D3A30535  20.555   2.819   3.878 -0.2039  0.2430  0.1120
    1DIPC   C4A30536  20.718   2.466   4.253 -0.3149  0.0613  0.0100
    1DIPC   C1B30537  19.235   2.209   3.804 -0.1536 -0.0954 -0.1769
    1DIPC   D2B30538  19.091   2.064   4.074  0.0274  0.2268  0.1909
    1DIPC   D3B30539  19.274   2.271   4.350  0.0277  0.0296 -0.0621
    1DIPC   C4B30540  19.756   2.478   4.436 -0.0796  0.1409  0.2346
    1DIPC   NC330541  15.210   7.761   2.178 -0.2531  0.2187  0.2795
    1DIPC   PO430542  15.092   8.204   2.290 -0.0725 -0.0827  0.0485
    1DIPC   GL130543  15.231   8.128   2.621 -0.1171  0.3382  0.0076
    1DIPC   GL230544  15.424   7.952   2.616  0.3333 -0.4359  0.4722
    1DIPC   C1A30545  15.217   8.459   3.039 -0.2153 -0.0085  0.1032
    1DIPC   D2A30546  15.404   8.696   3.434  0.0213  0.0319 -0.3554
    1DIPC   D3A30547  15.688   8.319   3.531 -0.0898  0.1860 -0.2049
    1DIPC   C4A30548  15.669   8.026   3.823 -0.3740 -0.0276  0.1103
    1DIPC   C1B30549  15.753   7.695   2.779 -0.1332  0.1695 -0.3307
    1DIPC   D2B30550  15.838   7.279   2.647  0.1769 -0.0653 -0.3497
    1DIPC   D3B30551  16.246   7.030   2.580  0.2457  0.0722 -0.1184
    1DIPC   C4B30552  16.707   6.960   2.577  0.0173 -0.1036 -0.0023
    1DIPC   NC330553  14.129  13.349   3.272 -0.2215 -0.0182 -0.1402
    1DIPC   PO430554  14.031  13.147   3.595 -0.0119  0.0379 -0.3942
    1DIPC   GL130555  14.106  13.175   4.063  0.0403  0.0892  0.0890
    1DIPC   GL230556  13.853  13.444   4.218  0.0409 -0.1737  0.0198
    1DIPC   C1A30557  14.192  13.063   4.469 -0.1468 -0.4287 -0.2847
    1DIPC   D2A30558  14.503  13.010   4.766 -0.0426  0.2988 -0.3591
    1DIPC   D3A30559  14.718  13.091   5.227  0.1497  0.3845 -0.0983
    1DIPC   C4A30560  15.207  13.238   5.205  0.2732  0.1761  0.2234
    1DIPC   C1B30561  13.758  13.280   4.512  0.1393 -0.0536 -0.2315
    1DIPC   D2B30562  13.940  13.120   4.940  0.1055  0.2313  0.0364
    1DIPC   D3B30563  14.060  13.531   5.138 -0.2094 -0.0056  0.0191
    1DIPC   C4B30564  14.005  13.640   5.514  0.1963 -0.2032 -0.0296
    1DIPC   NC330565  13.626  16.915   3.199  0.2665 -0.1312  0.3048
    1DIPC   PO430566  13.232  16.853   2.934  0.2335 -0.0006  0.0394
    1DIPC   GL130567  13.112  16.669   3.379  0.0188 -0.1975 -0.0043
    1DIPC   GL230568  13.368  16.607   3.550 -0.0071  0.3430 -0.1341
    1DIPC   C1A30569  13.107  16.765   3.927 -0.0838 -0.1473 -0.1276
    1DIPC   D2A30570  12.958  16.798   4.386 -0.1757 -0.1600 -0.0402
    1DIPC   D3A30571  12.712  17.123   4.413 -0.0967  0.1576 -0.0579
    1DIPC   C4A30572  12.853  17.618   4.274  0.1064 -0.3672  0.1902
    1DIPC   C1B30573  13.272  16.265   3.627  0.0467 -0.1513  0.0785
    1DIPC   D2B30574  13.069  15.981   3.862 -0.1237  0.2643 -0.0399
    1DIPC   D3B30575  13.178  15.677   4.260  0.1979  0.2289  0.1624
    1DIPC   C4B30576  12.772  15.473   4.421 -0.2520 -0.0804 -0.1247
    1DIPC   NC330577  21.452  12.822   2.640 -0.1645 -0.0763 -0.1997
    1DIPC   PO430578  21.837  13.039   2.623 -0.2203  0.1173  0.2690
    1DIPC   GL130579  21.500  13.191   2.956  0.1353 -0.2123 -0.1475
    1DIPC   GL230580  21.601  12.892   3.181  0.0490 -0.0923 -0.1131
    1DIPC   C1A30581  21.278  13.273   3.326 -0.0692  0.0331  0.0563
    1DIPC   D2A30582  21.006  13.436   3.506  0.0689  0.1323 -0.0798
    1DIPC   D3A30583  20.864  13.548   4.008  0.4575 -0.0177  0.1567
    1DIPC   C4A30584  21.156  13.350   4.335 -0.0462  0.0761  0.0515
    1DIPC   C1B30585  21.692  12.773   3.687  0.2389  0.0657  0.0533
    1DIPC   D2B30586  21.619  12.429   4.023 -0.1271 -0.0692 -0.0553
    1DIPC   D3B30587  21.461  12.330   3.636  0.2250 -0.0398  0.1869
    1DIPC   C4B30588  21.397  12.175   3.255  0.2191 -0.0280 -0.2398
    1DIPC   NC330589   7.547  20.442   1.796  0.1822  0.0831  0.3231
    1DIPC   PO430590   7.889  20.470   2.131 -0.0670  0.1220 -0.0914
    1DIPC   GL130591   7.650  20.217   2.298  0.0290  0.2044 -0.1042
    1DIPC   GL230592   7.817  19.994   2.464  0.1479  0.0484  0.1094
    1DIPC   C1A30593   7.436  20.285   2.631  0.2013 -0.2999  0.2595
    1DIPC   D2A30594   7.277  20.245   3.073  0.0120  0.2437  0.1188
    1DIPC   D3A30595   7.027  19.861   2.858  0.1121  0.4836  0.0085
    1DIPC   C4A30596   7.279  19.823   2.415  0.0674 -0.0758  0.2724
    1DIPC   C1B30597   8.108  20.165   2.752  0.1417  0.0528 -0.1879
    1DIPC   D2B30598   8.129  20.159   3.141 -0.2434 -0.1014 -0.1881
    1DIPC   D3B30599   8.153  19.773   3.329 -0.2195 -0.0348  0.1327
    1DIPC   C4B30600   7.854  19.552   3.348 -0.2595 -0.3505  0.0046
    1DIPC   NC330601  15.238  22.657   2.235  0.0599  0.0233 -0.0948
    1DIPC   PO430602  15.290  22.863   2.646 -0.2042 -0.0673  0.3790
    1DIPC   GL130603  15.563  22.733   3.005 -0.0121  0.0803 -0.0646
    1DIPC   GL230604  15.802  22.600   3.016 -0.4826 -0.0473 -0.0211
    1DIPC   C1A30605  15.596  22.900   3.462 -0.0202  0.2399  0.0911
    1DIPC   D2A30606  15.528  23.247   3.839 -0.0793 -0.1906 -0.1194
    1DIPC   D3A30607  15.879  22.938   3.888  0.2124  0.0884  0.0022
    1DIPC   C4A30608  16.129  22.875   4.311  0.1862  0.1417  0.0616
    1DIPC   C1B30609  15.738  22.186   3.149 -0.0325 -0.0353  0.0209
    1DIPC   D2B30610  15.368  22.078   3.174 -0.1747 -0.0721 -0.0979
    1DIPC   D3B30611  15.288  22.396   3.397 -0.2547 -0.0567 -0.1986
    1DIPC   C4B30612  15.014  22.673   3.212  0.1695  0.3483  0.2268
    1DIPC   NC330613   2.770   1.861   3.595 -0.0944  0.1801  0.0176
    1DIPC   PO430614   2.272   1.974   3.696 -0.0107 -0.2547  0.2235
    1DIPC   GL130615   2.495   2.014   4.055  0.1012  0.0734 -0.1360
    1DIPC   GL230616   2.340   2.243   4.131 -0.1212  0.0118 -0.0369
    1DIPC   C1A30617   2.548   1.902   4.420  0.0864  0.2500  0.0121
    1DIPC   D2A30618   2.962   1.824   4.644  0.1483  0.0429 -0.1822
    1DIPC   D3A30619   3.190   2.070   4.979  0.1525  0.3686  0.1128
    1DIPC   C4A30620   3.242   1.759   5.416 -0.1766 -0.0467 -0.0476
    1DIPC   C1B30621   2.332   2.308   4.548 -0.0714 -0.4548  0.1378
    1DIPC   D2B30622   2.037   2.385   4.899  0.1608  0.0907  0.0875
    1DIPC   D3B30623   2.056   1.990   5.302  0.1406  0.3513 -0.1913
    1DIPC   C4B30624   2.209   1.600   5.151  0.1462 -0.1016 -0.1726
    1DIPC   NC330625  14.144  15.287   3.276 -0.1961 -0.1358 -0.0971
    1DIPC   PO430626  14.101  15.752   3.389  0.1486 -0.0916 -0.1802
    1DIPC   GL130627  14.209  15.872   3.769  0.2815  0.2993  0.2660
    1DIPC   GL230628  13.966  15.870   3.941  0.0353  0.1002 -0.0500
    1DIPC   C1A30629  14.468  16.004   4.019  0.2074 -0.0274  0.0130
    1DIPC   D2A30630  14.499  16.193   4.438 -0.0467 -0.0838 -0.4509
    1DIPC   D3A30631  14.804  16.209   4.770  0.2761  0.0115  0.0111
    1DIPC   C4A30632  14.765  16.669   4.850 -0.4208 -0.0595  0.2619
    1DIPC   C1B30633  13.783  15.637   4.303 -0.0938  0.0602 -0.1292
    1DIPC   D2B30634  13.843  15.589   4.706 -0.0594  0.1008 -0.0680
    1DIPC   D3B30635  13.580  15.215   4.636 -0.2407 -0.1368  0.0862
    1DIPC   C4B30636  13.285  15.090   4.900 -0.0182 -0.0461 -0.4587
    1DIPC   NC330637  13.916  20.463   2.248 -0.0356 -0.3974 -0.3433
    1DIPC   PO430638  13.931  20.166   2.627  0.2257 -0.0486  0.2419
    1DIPC   GL130639  13.590  20.081   2.905 -0.0544  0.1276  0.1756
    1DIPC   GL230640  13.287  20.276   2.838 -0.1980  0.2125  0.0073
    1DIPC   C1A30641  13.585  19.950   3.328 -0.0446 -0.1692  0.2010
    1DIPC   D2A30642  13.277  19.744   3.664 -0.1563  0.1185  0.1346
    1DIPC   D3A30643  13.174  19.734   3.207 -0.0797  0.0207 -0.0126
    1DIPC   C4A30644  13.204  19.412   2.963 -0.0478  0.0837 -0.0203
    1DIPC   C1B30645  13.142  20.268   3.266  0.0548  0.1333 -0.0821
    1DIPC   D2B30646  13.263  20.337   3.707  0.1390 -0.2236  0.1870
    1DIPC   D3B30647  12.848  20.492   3.874 -0.0202  0.0785 -0.3158
    1DIPC   C4B30648  12.944  20.997   4.007  0.2617  0.2038  0.2258
    1DIPC   NC330649  23.076  21.724   2.295 -0.1931 -0.1579  0.1805
    1DIPC   PO430650  22.611  21.547   2.045  0.0383  0.0242  0.2611
    1DIPC   GL130651  22.464  21.480   2.471  0.1196  0.0003 -0.0952
    1DIPC   GL230652  22.720  21.317   2.588 -0.0428 -0.2530  0.2262
    1DIPC   C1A30653  22.093  21.281   2.637  0.3216  0.3748  0.0151
    1DIPC   D2A30654  21.887  21.026   2.982 -0.1384  0.2079 -0.0794
    1DIPC   D3A30655  22.078  21.288   3.189  0.1614  0.0569  0.2222
    1DIPC   C4A30656  22.168  21.243   3.610 -0.1959  0.0221 -0.0770
    1DIPC   C1B30657  22.658  21.518   2.969  0.2938  0.3022 -0.4300
    1DIPC   D2B30658  22.380  21.799   3.167  0.0425  0.3090 -0.2898
    1DIPC   D3B30659  22.550  21.580   3.542 -0.2161 -0.3010  0.3553
    1DIPC   C4B30660  22.693  21.351   3.779 -0.2255  0.0104  0.1177
    1DIPC   NC330661  22.982  26.993   3.094  0.1475  0.3064 -0.1067
    1DIPC   PO430662  23.312  27.117   2.783 -0.0958  0.5502  0.0528
    1DIPC   GL130663  23.476  27.216   3.260  0.3273  0.0500  0.2764
    1DIPC   GL230664  23.470  26.949   3.358  0.0439 -0.1408 -0.1994
    1DIPC   C1A30665  23.649  27.509   3.540 -0.1796 -0.1265  0.2076
    1DIPC   D2A30666  23.594  27.588   3.977  0.2327  0.0504 -0.0133
    1DIPC   D3A30667  23.590  27.185   4.252  0.2302 -0.1504  0.0711
    1DIPC   C4A30668  23.955  26.923   4.189  0.0453  0.0430 -0.2972
    1DIPC   C1B30669  23.644  26.992   3.791 -0.0923 -0.0950  0.0002
    1DIPC   D2B30670  23.674  26.599   3.999  0.0276  0.2880  0.1073
    1DIPC   D3B30671  23.721  26.639   4.532  0.4121  0.1459 -0.2691
    1DIPC   C4B30672  23.917  26.386   4.831  0.2070  0.0526  0.2438
    1DIPC   NC330673  17.109  19.607   2.659 -0.3248  0.5676 -0.1582
    1DIPC   PO430674  17.092  20.006   2.955  0.0302 -0.3068 -0.0283
    1DIPC   GL130675  16.850  20.115   3.369 -0.1841  0.1161  0.0943
    1DIPC   GL230676  16.512  20.154   3.611 -0.4034  0.2644  0.1640
    1DIPC   C1A30677  16.835  20.365   3.850  0.1450  0.1294 -0.3735
    1DIPC   D2A30678  16.857  20.401   4.301  0.3682  0.1227 -0.0604
    1DIPC   D3A30679  16.524  20.615   4.186  0.1031 -0.0983  0.2199
    1DIPC   C4A30680  16.415  20.783   3.714 -0.1069  0.3163 -0.0686
    1DIPC   C1B30681  16.151  20.281   3.998 -0.0216 -0.1129  0.1867
    1DIPC   D2B30682  16.034  20.371   4.386  0.0223  0.5898 -0.1081
    1DIPC   D3B30683  15.842  19.904   4.237 -0.2367  0.0718  0.0062
    1DIPC   C4B30684  15.454  19.815   4.062 -0.1859  0.0561  0.0841
    1DIPC   NC330685   0.989   1.811   3.538  0.1432  0.0535 -0.0448
    1DIPC   PO430686   0.592   1.634   3.670  0.0302  0.2203  0.2001
    1DIPC   GL130687   0.645   1.627   4.111  0.2136 -0.3922 -0.2204
    1DIPC   GL230688   0.431   1.737   4.185 -0.0017  0.2032 -0.0062
    1DIPC   C1A30689   1.003   1.779   4.417 -0.5935  0.1225 -0.0422
    1DIPC   D2A30690   1.303   1.739   4.643 -0.1891 -0.3019  0.0312
    1DIPC   D3A30691   1.675   1.800   4.919 -0.0609 -0.0458 -0.1549
    1DIPC   C4A30692   1.677   1.435   5.118 -0.2236  0.2223  0.3154
    1DIPC   C1B30693   0.163   1.930   4.484  0.1499  0.3553  0.5075
    1DIPC   D2B30694   0.059   2.303   4.414 -0.1271 -0.2932  0.0591
    1DIPC   D3B30695   0.216   2.632   4.765 -0.2401  0.0780  0.2282
    1DIPC   C4B30696  30.337   2.722   5.122 -0.0486 -0.3752  0.2394
    1DIPC   NC330697  15.201  27.029   2.825 -0.1010 -0.1128  0.0689
    1DIPC   PO430698  14.967  26.728   2.916  0.1895 -0.0884  0.0667
    1DIPC   GL130699  14.733  26.757   3.229 -0.2266 -0.1238  0.0667
    1DIPC   GL230700  14.765  26.930   3.420 -0.3001  0.1072  0.2261
    1DIPC   C1A30701  14.569  26.478   3.539 -0.0048 -0.0790 -0.2229
    1DIPC   D2A30702  14.402  26.149   3.827 -0.0976 -0.1728 -0.3988
    1DIPC   D3A30703  14.060  26.322   4.038 -0.2384 -0.2948  0.0017
    1DIPC   C4A30704  13.992  26.151   4.481 -0.1038 -0.0205 -0.2865
    1DIPC   C1B30705  15.006  26.710   3.663  0.2637  0.0389  0.1903
    1DIPC   D2B30706  15.095  26.706   4.041  0.0901 -0.0115  0.0809
    1DIPC   D3B30707  14.695  26.903   4.216  0.1560  0.0823 -0.2620
    1DIPC   C4B30708  14.335  26.640   4.369 -0.3864  0.1243 -0.1064
    1DIPC   NC330709  26.163  23.929   2.047  0.3202  0.1263  0.1644
    1DIPC   PO430710  26.108  24.018   2.488 -0.0255 -0.0911 -0.3173
    1DIPC   GL130711  26.167  23.722   2.825 -0.2803  0.0531 -0.0915
    1DIPC   GL230712  26.214  23.390   2.767  0.1212 -0.0578  0.0736
    1DIPC   C1A30713  26.308  23.643   3.238  0.1333  0.0171  0.2159
    1DIPC   D2A30714  26.383  24.023   3.485  0.1831  0.0148  0.2079
    1DIPC   D3A30715  26.347  23.815   3.820 -0.0484  0.2866  0.0490
    1DIPC   C4A30716  25.900  23.907   4.065 -0.1034 -0.0599 -0.1066
    1DIPC   C1B30717  26.092  23.161   3.246 -0.0196  0.0222 -0.0516
    1DIPC   D2B30718  26.328  22.835   3.488  0.1294  0.0300  0.1743
    1DIPC   D3B30719  26.730  22.802   3.619 -0.0084 -0.0430  0.0984
    1DIPC   C4B30720  26.822  22.525   3.872 -0.1494 -0.2439  0.1805
    1DIPC   NC330721  10.928  18.534   1.907 -0.0012  0.3548  0.0071
    1DIPC   PO430722  10.843  18.788   2.213  0.0272 -0.3068  0.2721
    1DIPC   GL130723  10.843  19.058   2.637 -0.0122  0.0511  0.1761
    1DIPC   GL230724  10.721  19.357   2.546  0.3719 -0.1970 -0.3349
    1DIPC   C1A30725  10.833  19.311   2.987  0.1995  0.0055  0.2416
    1DIPC   D2A30726  10.855  19.520   3.378  0.1163  0.1395 -0.1319
    1DIPC   D3A30727  10.936  19.718   3.810 -0.1663 -0.2389 -0.1013
    1DIPC   C4A30728  11.329  19.564   4.067 -0.0304  0.0997  0.2728
    1DIPC   C1B30729  10.403  19.499   2.767  0.0940  0.1082  0.2878
    1DIPC   D2B30730  10.389  19.320   3.148 -0.0439  0.1285 -0.1188
    1DIPC   D3B30731   9.991  19.245   3.320  0.1389  0.0155  0.2243
    1DIPC   C4B30732   9.744  19.555   3.457  0.1510  0.1014 -0.2606
    1DIPC   NC330733  29.001  10.290   2.418 -0.0598  0.0996 -0.0433
    1DIPC   PO430734  28.821  10.703   2.567  0.2468  0.0751  0.1623
    1DIPC   GL130735  28.632  10.812   2.985  0.2280 -0.1683  0.0538
    1DIPC   GL230736  28.882  10.695   3.131 -0.1640 -0.0881  0.1535
    1DIPC   C1A30737  28.369  10.887   3.418  0.3964 -0.2122  0.3238
    1DIPC   D2A30738  28.235  10.763   3.783  0.0581 -0.0270 -0.0302
    1DIPC   D3A30739  28.007  10.436   3.673  0.0346 -0.3430  0.0873
    1DIPC   C4A30740  27.642  10.399   3.412 -0.3451 -0.0582 -0.2049
    1DIPC   C1B30741  28.833  10.784   3.625 -0.0573  0.0206  0.1186
    1DIPC   D2B30742  28.745  10.800   4.070  0.3049 -0.1440 -0.0201
    1DIPC   D3B30743  29.009  11.126   4.046 -0.0611  0.5210  0.2111
    1DIPC   C4B30744  29.433  11.108   4.281  0.0540  0.2669  0.1838
    1DIPC   NC330745   7.840  19.099   1.878  0.0013 -0.1020 -0.2378
    1DIPC   PO430746   7.640  18.718   1.832 -0.2751 -0.1101 -0.0490
    1DIPC   GL130747   7.379  18.791   2.268 -0.0989 -0.2184 -0.0141
    1DIPC   GL230748   7.448  18.524   2.492  0.3763 -0.1771 -0.2915
    1DIPC   C1A30749   7.293  19.030   2.663 -0.0264 -0.3026 -0.0702
    1DIPC   D2A30750   7.298  19.447   2.698  0.0240 -0.3541  0.5313
    1DIPC   D3A30751   7.402  19.548   3.143 -0.1926  0.0117 -0.2393
    1DIPC   C4A30752   7.068  19.514   3.359  0.0431 -0.0447  0.3601
    1DIPC   C1B30753   7.666  18.743   2.910 -0.2133  0.2433 -0.1438
    1DIPC   D2B30754   7.535  19.071   3.108 -0.2856  0.2840 -0.2164
    1DIPC   D3B30755   7.050  19.121   3.093  0.0648  0.1803  0.0977
    1DIPC   C4B30756   6.832  18.896   3.365 -0.1209  0.1728  0.0328
    1DIPC   NC330757  12.954  11.337   3.321 -0.0224  0.3005  0.3371
    1DIPC   PO430758  12.679  11.620   3.583  0.0271  0.0364  0.0099
    1DIPC   GL130759  12.704  11.709   3.994  0.1546  0.0823 -0.0670
    1DIPC   GL230760  12.690  11.930   4.033 -0.3082  0.4100 -0.2532
    1DIPC   C1A30761  12.523  11.411   4.273  0.0456  0.4207  0.1020
    1DIPC   D2A30762  12.437  11.009   4.499 -0.0109  0.3709 -0.0623
    1DIPC   D3A30763  12.648  10.833   4.906  0.0844  0.0382  0.2592
    1DIPC   C4A30764  12.698  11.102   5.313 -0.1427  0.0737  0.2348
    1DIPC   C1B30765  12.599  12.277   4.186  0.1904 -0.0297  0.1349
    1DIPC   D2B30766  12.295  12.609   4.155  0.1508  0.0682  0.0443
    1DIPC   D3B30767  12.318  12.516   4.496 -0.5768  0.0132 -0.2058
    1DIPC   C4B30768  12.110  12.750   4.844  0.1801  0.2469  0.0390
    1DIPC   NC330769   5.222  26.283   2.946 -0.3223  0.1990 -0.3597
    1DIPC   PO430770   5.594  26.147   2.829  0.2086 -0.3754  0.0643
    1DIPC   GL130771   5.734  25.948   3.215 -0.0160  0.2706  0.1291
    1DIPC   GL230772   6.045  25.899   3.214 -0.4002 -0.0543  0.3270
    1DIPC   C1A30773   5.706  25.831   3.655 -0.0187 -0.0852  0.0210
    1DIPC   D2A30774   5.705  25.620   3.978  0.2163  0.0404  0.0410
    1DIPC   D3A30775   5.766  26.006   4.309  0.0458 -0.2764  0.2722
    1DIPC   C4A30776   5.925  25.937   4.744  0.1399  0.1014  0.2448
    1DIPC   C1B30777   6.181  25.588   3.458 -0.2380  0.4872  0.1572
    1DIPC   D2B30778   6.487  25.376   3.542 -0.2784 -0.0445 -0.3265
    1DIPC   D3B30779   6.634  25.057   3.937  0.1535  0.0219  0.1506
    1DIPC   C4B30780   6.241  24.879   4.195  0.1611  0.1373 -0.2176
    1DIPC   NC330781  15.227  13.316   3.558  0.1676 -0.4227 -0.1427
    1DIPC   PO430782  14.995  13.664   3.502  0.1328  0.0766  0.0262
    1DIPC   GL130783  15.019  13.639   3.960 -0.0874 -0.2917  0.2359
    1DIPC   GL230784  15.100  14.001   4.126 -0.0252 -0.0270 -0.4860
    1DIPC   C1A30785  14.788  13.460   4.257  0.0977  0.0391  0.0322
    1DIPC   D2A30786  14.783  13.062   4.388  0.1466  0.1070  0.0326
    1DIPC   D3A30787  15.103  12.756   4.370 -0.1824 -0.4226  0.3306
    1DIPC   C4A30788  15.306  12.402   4.582 -0.0958 -0.0615 -0.1191
    1DIPC   C1B30789  15.120  13.789   4.493 -0.1822 -0.0798 -0.2898
    1DIPC   D2B30790  15.075  13.787   5.009 -0.0385  0.3640  0.0347
    1DIPC   D3B30791  14.827  13.567   5.254  0.1692  0.0798 -0.0430
    1DIPC   C4B30792  14.993  13.304   5.615  0.2634  0.1895  0.0775
    1DIPC   NC330793  24.320   9.703   2.328  0.1537  0.0431  0.1824
    1DIPC   PO430794  23.989  10.044   2.218  0.3357 -0.0645 -0.1642
    1DIPC   GL130795  23.749  10.062   2.569  0.1760 -0.1609 -0.2839
    1DIPC   GL230796  23.940  10.323   2.830  0.0333 -0.0287 -0.0494
    1DIPC   C1A30797  23.368  10.119   2.822 -0.2506 -0.1438  0.3033
    1DIPC   D2A30798  23.237  10.213   3.279  0.1246 -0.3581  0.3182
    1DIPC   D3A30799  23.348  10.191   3.729  0.1599  0.0057 -0.0339
    1DIPC   C4A30800  23.180   9.788   3.919  0.3313  0.0254  0.4184
    1DIPC   C1B30801  24.040   9.911   2.940 -0.2334 -0.0515  0.2276
    1DIPC   D2B30802  24.152   9.456   3.037  0.0722 -0.0194  0.1354
    1DIPC   D3B30803  24.206   9.318   3.401 -0.2401 -0.0626  0.0703
    1DIPC   C4B30804  24.375   9.597   3.690  0.1397 -0.1570 -0.3406
    1DIPC   NC330805  14.966  18.753   2.070 -0.0048  0.0401  0.1019
    1DIPC   PO430806  14.878  18.655   2.482  0.0094  0.1471  0.1951
    1DIPC   GL130807  14.863  18.834   2.919  0.1193  0.1194 -0.0603
    1DIPC   GL230808  14.805  19.150   2.670 -0.4442 -0.3925 -0.1270
    1DIPC   C1A30809  14.626  19.021   3.280 -0.2657 -0.1624 -0.0786
    1DIPC   D2A30810  14.879  19.298   3.647 -0.0882  0.1259 -0.3143
    1DIPC   D3A30811  15.353  19.125   3.810 -0.0597  0.0554 -0.0176
    1DIPC   C4A30812  15.481  19.313   4.070 -0.1977 -0.0106 -0.1767
    1DIPC   C1B30813  15.318  19.011   2.796  0.0972  0.0312  0.0627
    1DIPC   D2B30814  15.489  18.662   2.925  0.1943  0.2139 -0.1109
    1DIPC   D3B30815  15.521  18.756   3.336  0.0101  0.2950 -0.0898
    1DIPC   C4B30816  15.443  18.552   3.735  0.1265 -0.2390 -0.1112
    1DIPC   NC330817  12.530  22.870   2.399  0.2490  0.1672 -0.0388
    1DIPC   PO430818  12.071  23.092   2.503  0.0289 -0.2291  0.2502
    1DIPC   GL130819  12.238  23.046   2.940 -0.2310  0.2137 -0.0090
    1DIPC   GL230820  11.939  22.847   3.025  0.1655 -0.2053  0.4935
    1DIPC   C1A30821  12.338  23.107   3.356  0.4174  0.0764  0.0481
    1DIPC   D2A30822  12.601  23.010   3.719 -0.1616 -0.0965 -0.1326
    1DIPC   D3A30823  13.034  22.720   3.544  0.0257  0.1884  0.1816
    1DIPC   C4A30824  13.249  22.643   3.101  0.3594  0.1455  0.0275
    1DIPC   C1B30825  11.702  22.720   3.417  0.2222  0.0977  0.1358
    1DIPC   D2B30826  11.650  22.931   3.727 -0.2236 -0.2334 -0.2077
    1DIPC   D3B30827  11.908  22.994   4.097 -0.3196 -0.3454 -0.2563
    1DIPC   C4B30828  12.065  23.324   4.344 -0.3157 -0.2410  0.1267
    1DIPC   NC330829   5.713   0.337   3.841 -0.1866  0.0292 -0.1300
    1DIPC   PO430830   5.812   0.795   3.976  0.1912 -0.1246  0.0976
    1DIPC   GL130831   5.639   0.934   4.351 -0.1762  0.0482  0.1903
    1DIPC   GL230832   5.945   0.802   4.512 -0.1449 -0.1082 -0.0546
    1DIPC   C1A30833   5.499   1.026   4.766  0.2005  0.1501  0.2413
    1DIPC   D2A30834   5.080   1.091   5.031 -0.0873  0.1403 -0.0855
    1DIPC   D3A30835   4.818   0.922   4.742  0.1150  0.0804 -0.0643
    1DIPC   C4A30836   4.663   1.298   4.623  0.2857  0.4554 -0.2746
    1DIPC   C1B30837   6.241   0.704   4.706 -0.0758  0.0490 -0.1641
    1DIPC   D2B30838   6.343   0.870   5.013  0.0927 -0.1355  0.1209
    1DIPC   D3B30839   5.896   0.972   5.003  0.1958 -0.0408 -0.3103
    1DIPC   C4B30840   5.674   0.640   5.146 -0.1091 -0.0704  0.1334
    1DIPC   NC330841  22.724   1.958   3.367 -0.0384  0.1232  0.2705
    1DIPC   PO430842  22.503   2.296   3.395  0.2882 -0.0350  0.0984
    1DIPC   GL130843  22.444   2.617   3.605 -0.0008 -0.1487  0.0992
    1DIPC   GL230844  22.454   2.444   3.868 -0.2547  0.0510 -0.0680
    1DIPC   C1A30845  22.434   3.050   3.686 -0.3466  0.1619  0.0057
    1DIPC   D2A30846  22.116   3.219   3.918 -0.2670  0.1099 -0.0648
    1DIPC   D3A30847  22.011   2.776   3.955 -0.2686 -0.1695 -0.1187
    1DIPC   C4A30848  22.089   2.382   4.196 -0.0327  0.0348 -0.1513
    1DIPC   C1B30849  22.362   2.004   4.004  0.1179 -0.1063  0.0308
    1DIPC   D2B30850  22.431   1.593   4.214 -0.2027 -0.2551  0.1113
    1DIPC   D3B30851  22.865   1.607   4.428  0.1963  0.0704  0.0828
    1DIPC   C4B30852  23.050   1.747   4.789 -0.3489 -0.1018 -0.2447
    1DIPC   NC330853   5.485  28.612   3.135  0.1380  0.0959  0.3499
    1DIPC   PO430854   5.925  28.562   3.026 -0.3057  0.0786 -0.1899
    1DIPC   GL130855   5.826  28.414   3.473 -0.0936 -0.1861  0.3052
    1DIPC   GL230856   6.172  28.404   3.616 -0.1569  0.2151 -0.0843
    1DIPC   C1A30857   5.724  28.043   3.786 -0.0900  0.1194  0.1338
    1DIPC   D2A30858   5.757  27.819   4.175  0.1689 -0.1373  0.2659
    1DIPC   D3A30859   5.766  27.833   4.715 -0.2780  0.1017 -0.1541
    1DIPC   C4A30860   6.111  27.754   4.952 -0.1544  0.2638 -0.1137
    1DIPC   C1B30861   6.190  28.125   4.062 -0.0676  0.1432 -0.0476
    1DIPC   D2B30862   6.251  28.017   4.356 -0.1604  0.3356 -0.2036
    1DIPC   D3B30863   6.498  27.630   4.499 -0.0520  0.1061  0.0619
    1DIPC   C4B30864   6.588  27.544   5.043  0.1111 -0.0324 -0.0835
    1DIPC   NC330865  16.509  14.401   3.201 -0.1021 -0.0212 -0.0175
    1DIPC   PO430866  16.250  14.051   3.321 -0.1699 -0.2653  0.0783
    1DIPC   GL130867  16.342  14.211   3.642  0.4230 -0.1115 -0.3011
    1DIPC   GL230868  16.081  14.334   3.781  0.2767 -0.4407  0.1124
    1DIPC   C1A30869  16.544  14.495   4.005 -0.1481 -0.1321  0.2488
    1DIPC   D2A30870  16.459  14.547   4.477 -0.0433 -0.1711  0.2515
    1DIPC   D3A30871  16.674  14.794   4.769  0.1029 -0.2153  0.1310
    1DIPC   C4A30872  17.086  14.758   4.684 -0.1897 -0.0704 -0.0601
    1DIPC   C1B30873  15.970  14.537   4.263 -0.2836  0.1692 -0.1096
    1DIPC   D2B30874  16.005  14.614   4.657 -0.1430  0.1138  0.0181
    1DIPC   D3B30875  16.208  14.627   5.030 -0.1082  0.1004 -0.1356
    1DIPC   C4B30876  16.278  14.983   5.248  0.1269  0.0819 -0.2861
    1DIPC   NC330877  10.807  29.213   3.251  0.2322 -0.1446 -0.1923
    1DIPC   PO430878  11.068  28.946   3.371  0.1186  0.1528  0.0768
    1DIPC   GL130879  11.147  29.086   3.698 -0.2516 -0.2462  0.3815
    1DIPC   GL230880  11.432  29.017   3.731 -0.2333  0.0227  0.1725
    1DIPC   C1A30881  10.969  29.212   4.040 -0.0841  0.3749  0.0449
    1DIPC   D2A30882  11.042  29.315   4.516  0.2709  0.1030 -0.1114
    1DIPC   D3A30883  10.628  29.210   4.698  0.2419 -0.1910 -0.1403
    1DIPC   C4A30884  10.522  29.284   5.158 -0.1758 -0.3905 -0.0951
    1DIPC   C1B30885  11.677  29.240   4.105  0.1661  0.1917  0.0029
    1DIPC   D2B30886  11.553  29.277   4.512  0.2297 -0.0049 -0.0978
    1DIPC   D3B30887  11.777  28.875   4.601  0.0256 -0.2632 -0.1424
    1DIPC   C4B30888  12.235  28.628   4.691  0.3616 -0.2366  0.3233
    1DIPC   NC330889  26.375   4.389   3.947  0.2097  0.1952 -0.1509
    1DIPC   PO430890  26.046   4.684   3.834 -0.2560  0.1153 -0.1649
    1DIPC   GL130891  26.070   4.669   4.262 -0.4375  0.3223 -0.2389
    1DIPC   GL230892  25.873   4.427   4.393 -0.1458  0.1194 -0.1307
    1DIPC   C1A30893  26.083   4.998   4.434 -0.4149 -0.4635  0.0905
    1DIPC   D2A30894  26.188   5.118   4.846  0.0515  0.1830 -0.1188
    1DIPC   D3A30895  25.810   5.294   4.772 -0.0065  0.2201 -0.0957
    1DIPC   C4A30896  25.790   5.594   4.527 -0.2801  0.1942  0.1394
    1DIPC   C1B30897  25.768   4.045   4.611  0.1153  0.2774  0.2559
    1DIPC   D2B30898  25.666   3.671   4.706  0.0229  0.0178 -0.1357
    1DIPC   D3B30899  25.990   3.424   4.832 -0.0145  0.0943  0.0835
    1DIPC   C4B30900  25.864   3.003   4.760  0.0437 -0.3442 -0.0514
    1DIPC   NC330901  24.108  25.698   2.993 -0.0329  0.2004  0.1203
    1DIPC   PO430902  23.678  25.966   3.042  0.0699 -0.1758 -0.1052
    1DIPC   GL130903  23.563  25.817   3.400  0.0180 -0.2538 -0.1684
    1DIPC   GL230904  23.770  25.573   3.421  0.1382  0.0905  0.2798
    1DIPC   C1A30905  23.676  25.985   3.825 -0.0805 -0.1102 -0.2534
    1DIPC   D2A30906  23.902  26.184   4.208 -0.1604 -0.0749 -0.0801
    1DIPC   D3A30907  24.267  26.025   4.423  0.1156  0.1038  0.0168
    1DIPC   C4A30908  24.703  26.083   4.625 -0.0648 -0.3296  0.1805
    1DIPC   C1B30909  24.152  25.655   3.671  0.2843 -0.0427  0.0450
    1DIPC   D2B30910  24.338  25.508   4.053  0.1460 -0.0940  0.1103
    1DIPC   D3B30911  24.353  25.108   4.040  0.3552  0.0767 -0.0528
    1DIPC   C4B30912  24.648  24.880   3.825  0.0358 -0.0896 -0.2645
    1DIPC   NC330913   0.668   3.698   2.748  0.0681  0.2186  0.0898
    1DIPC   PO430914   0.463   3.452   3.174 -0.0594  0.0284 -0.1780
    1DIPC   GL130915   0.550   3.696   3.528 -0.1364 -0.3224 -0.1942
    1DIPC   GL230916   0.323   3.554   3.775  0.1009 -0.3130 -0.0957
    1DIPC   C1A30917   0.656   3.991   3.903 -0.1106 -0.3138  0.0823
    1DIPC   D2A30918   0.795   4.341   4.291  0.1730  0.0353 -0.1160
    1DIPC   D3A30919   0.944   4.310   4.655 -0.0813 -0.1284  0.1733
    1DIPC   C4A30920   1.271   4.513   4.826  0.0139 -0.0786 -0.1877
    1DIPC   C1B30921   0.356   3.196   4.028 -0.0664  0.2020  0.1522
    1DIPC   D2B30922   0.257   2.937   4.393 -0.2485  0.1244 -0.2761
    1DIPC   D3B30923  30.216   2.979   4.357  0.1653 -0.1031  0.0915
    1DIPC   C4B30924  29.845   3.176   4.664 -0.2466 -0.2496  0.4147
    1DIPC   NC330925   8.721   9.408   3.040 -0.4694 -0.0759 -0.1348
    1DIPC   PO430926   8.455   9.677   2.985 -0.0788 -0.3516 -0.0796
    1DIPC   GL130927   8.145   9.314   3.138 -0.0376 -0.0550 -0.0453
    1DIPC   GL230928   7.815   9.369   3.089 -0.1154 -0.0456  0.0292
    1DIPC   C1A30929   7.831   8.916   3.338 -0.0765  0.0746 -0.0701
    1DIPC   D2A30930   7.707   8.518   3.444  0.1002 -0.1301  0.1935
    1DIPC   D3A30931   7.479   8.655   3.846 -0.1308 -0.1928 -0.1127
    1DIPC   C4A30932   7.683   8.582   4.168 -0.0946  0.2302  0.1583
    1DIPC   C1B30933   7.969   9.327   3.590  0.3009 -0.1141 -0.2357
    1DIPC   D2B30934   8.147   9.423   3.928 -0.1018  0.0138 -0.0924
    1DIPC   D3B30935   8.133   9.855   4.100 -0.0477 -0.2343  0.3363
    1DIPC   C4B30936   7.944  10.014   4.415  0.2527  0.0693 -0.0600
    1DIPC   NC330937  16.107  27.159   2.650  0.2614 -0.1409  0.1136
    1DIPC   PO430938  15.734  27.280   2.800  0.1295  0.3171  0.1156
    1DIPC   GL130939  15.465  27.153   3.195 -0.2248  0.0655 -0.3138
    1DIPC   GL230940  15.313  27.002   3.374 -0.1729 -0.2027  0.3395
    1DIPC   C1A30941  15.473  27.526   3.581 -0.2665  0.0247 -0.1598
    1DIPC   D2A30942  15.269  27.764   3.748 -0.1101  0.5348 -0.0936
    1DIPC   D3A30943  15.464  27.984   4.235  0.0947 -0.0939  0.2470
    1DIPC   C4A30944  15.605  28.334   4.425  0.3804 -0.3035 -0.2495
    1DIPC   C1B30945  15.421  27.032   3.848 -0.1373  0.0422  0.1130
    1DIPC   D2B30946  15.747  26.908   4.076  0.1007  0.1011  0.4665
    1DIPC   D3B30947  15.740  26.969   4.503 -0.2690 -0.1566  0.0849
    1DIPC   C4B30948  15.233  26.959   4.503 -0.0408  0.3561  0.3793
    1DIPC   NC330949  18.856   4.845   2.589  0.0162 -0.0439  0.0490
    1DIPC   PO430950  18.906   5.310   2.419  0.0025 -0.0830 -0.3807
    1DIPC   GL130951  18.892   5.292   2.788  0.1474 -0.1615  0.2181
    1DIPC   GL230952  18.581   5.493   2.904  0.2846  0.0078 -0.0538
    1DIPC   C1A30953  18.665   5.145   3.237  0.2345 -0.0465  0.0204
    1DIPC   D2A30954  18.357   4.803   3.343 -0.1459  0.0851  0.0914
    1DIPC   D3A30955  17.984   4.879   3.615  0.2326 -0.1885 -0.0380
    1DIPC   C4A30956  17.888   5.101   4.027 -0.1698 -0.1836 -0.2056
    1DIPC   C1B30957  18.501   5.693   3.245 -0.0501  0.2036  0.1242
    1DIPC   D2B30958  18.208   6.016   3.630 -0.0015  0.0857  0.0607
    1DIPC   D3B30959  18.126   5.589   3.833 -0.1733 -0.0884 -0.1136
    1DIPC   C4B30960  18.003   5.565   4.248  0.0296  0.2853  0.0468
    1DIPC   NC330961   9.350  18.896   1.844  0.0548 -0.0139 -0.2377
    1DIPC   PO430962   9.219  18.787   2.159 -0.0119 -0.1288 -0.1515
    1DIPC   GL130963   9.403  18.746   2.575 -0.1117 -0.0821  0.1001
    1DIPC   GL230964   9.503  18.947   2.626  0.2043 -0.0123 -0.1023
    1DIPC   C1A30965   9.184  18.662   2.949 -0.3201 -0.5392 -0.0809
    1DIPC   D2A30966   9.388  18.609   3.375  0.1425 -0.2103 -0.3082
    1DIPC   D3A30967   9.057  18.919   3.403 -0.0107 -0.1115 -0.2313
    1DIPC   C4A30968   9.111  19.175   3.068 -0.0493  0.0194  0.0621
    1DIPC   C1B30969   9.578  19.066   3.073 -0.0215  0.0535  0.2177
    1DIPC   D2B30970   9.559  19.094   3.524 -0.0851  0.1504  0.2450
    1DIPC   D3B30971   9.317  18.878   3.848  0.1294 -0.0177 -0.2194
    1DIPC   C4B30972   9.246  18.516   3.884 -0.0023  0.2375 -0.1072
    1DIPC   NC330973  18.318  27.382   2.775  0.1591 -0.0264 -0.1276
    1DIPC   PO430974  18.262  26.867   2.638  0.1046 -0.0583 -0.1085
    1DIPC   GL130975  18.319  26.745   3.114 -0.0597 -0.1846  0.0560
    1DIPC   GL230976  18.158  27.025   3.126  0.1278 -0.1522 -0.4243
    1DIPC   C1A30977  18.068  26.544   3.358 -0.1064  0.1717  0.0108
    1DIPC   D2A30978  18.127  26.293   3.738  0.0347  0.0123 -0.2358
    1DIPC   D3A30979  17.855  25.989   3.866 -0.0093  0.1628  0.1478
    1DIPC   C4A30980  17.690  25.669   4.201 -0.3205  0.3463  0.2755
    1DIPC   C1B30981  18.394  27.081   3.420  0.0893 -0.1894  0.3629
    1DIPC   D2B30982  18.816  26.999   3.428 -0.0720  0.0820 -0.1267
    1DIPC   D3B30983  18.789  27.290   3.760 -0.0928  0.1059 -0.5176
    1DIPC   C4B30984  18.412  27.300   3.860  0.1151 -0.3408  0.1174
    1DIPC   NC330985  22.327   9.579   2.186 -0.1826 -0.2003  0.1537
    1DIPC   PO430986  22.762   9.640   2.197  0.1287 -0.2064 -0.0581
    1DIPC   GL130987  22.803   9.680   2.621 -0.0948  0.0792 -0.2302
    1DIPC   GL230988  22.943   9.915   2.571 -0.2004 -0.0403 -0.0541
    1DIPC   C1A30989  22.635   9.421   2.861  0.1434 -0.2772 -0.3817
    1DIPC   D2A30990  22.263   9.420   3.166 -0.1388 -0.1560 -0.1725
    1DIPC   D3A30991  22.506   9.186   3.498  0.0454 -0.1690 -0.0146
    1DIPC   C4A30992  22.773   9.297   3.789 -0.0911  0.2079 -0.0109
    1DIPC   C1B30993  22.893  10.205   2.866 -0.1001  0.2798 -0.1989
    1DIPC   D2B30994  23.036  10.557   2.967  0.0993  0.2327 -0.0654
    1DIPC   D3B30995  23.011  10.689   3.390 -0.0788  0.1400  0.0744
    1DIPC   C4B30996  23.262  10.677   3.729  0.0059  0.0364  0.3825
    1DIPC   NC330997  14.620  27.174   2.820 -0.1334 -0.0967 -0.0488
    1DIPC   PO430998  14.237  26.896   2.997 -0.0832 -0.2346  0.0694
    1DIPC   GL130999  14.236  26.966   3.465  0.0644 -0.0057  0.0924
    1DIPC   GL231000  14.033  26.857   3.485  0.0655  0.0398 -0.0680
    1DIPC   C1A31001  14.333  26.729   3.889 -0.0325 -0.1449  0.2061
    1DIPC   D2A31002  14.705  26.440   4.081  0.0142 -0.0625 -0.0975
    1DIPC   D3A31003  14.553  26.154   4.440 -0.1482  0.2417  0.0002
    1DIPC   C4A31004  14.569  26.260   4.865 -0.0496  0.0506 -0.2683
    1DIPC   C1B31005  13.842  26.743   3.882 -0.0242  0.1136  0.0670
    1DIPC   D2B31006  13.534  26.401   3.811  0.0807 -0.1497  0.0892
    1DIPC   D3B31007  13.506  26.325   4.162 -0.0586 -0.0188 -0.1217
    1DIPC   C4B31008  13.578  26.442   4.598 -0.2207  0.1076  0.1752
    1CHOL   ROH31009  24.712  15.575   4.565 -0.1063  0.1722  0.2633
    1CHOL    R131010  24.768  15.848   4.519  0.0216  0.1606  0.3450
    1CHOL    R231011  24.943  15.993   4.677  0.4017 -0.0694  0.1514
    1CHOL    R331012  25.062  16.048   4.439  0.0455 -0.0114 -0.0195
    1CHOL    R431013  25.126  16.278   4.609  0.4197 -0.1176 -0.0038
    1CHOL    R531014  25.034  16.284   4.412  0.1019  0.0157  0.1405
    1CHOL    C131015  25.344  16.496   4.346  0.0959 -0.0913 -0.2546
    1CHOL    C231016  25.577  16.781   4.561 -0.0150  0.0171  0.0280
    1CHOL   ROH31017  17.064   1.903   5.578  0.1210 -0.0796 -0.0584
    1CHOL    R131018  16.848   1.888   5.395  0.0109 -0.0609  0.0665
    1CHOL    R231019  16.659   2.087   5.371  0.0787  0.0144  0.0927
    1CHOL    R331020  16.730   2.079   5.108 -0.0633 -0.1221  0.0580
    1CHOL    R431021  16.486   2.241   5.114  0.1520  0.1909  0.1485
    1CHOL    R531022  16.522   2.065   4.991 -0.1368  0.1253  0.1616
    1CHOL    C131023  16.452   2.323   4.719  0.0617  0.1655  0.1485
    1CHOL    C231024  16.064   2.282   4.554  0.1402  0.0651  0.0267
    1CHOL   ROH31025   9.157   2.649   5.839  0.1926  0.1017  0.0400
    1CHOL    R131026   9.132   2.699   5.562 -0.1061  0.1023  0.0641
    1CHOL    R231027   8.966   2.897   5.461  0.0913  0.3830  0.2701
    1CHOL    R331028   9.193   2.979   5.337  0.0761 -0.0343 -0.0590
    1CHOL    R431029   8.978   3.128   5.204  0.1416  0.3293  0.2245
    1CHOL    R531030   9.130   3.005   5.108 -0.2025  0.0431  0.0225
    1CHOL    C131031   9.199   3.340   4.939  0.1567 -0.0938 -0.1109
    1CHOL    C231032   9.023   3.547   4.672  0.0512 -0.1584  0.1193
    1CHOL   ROH31033   5.322  11.626   3.321 -0.2266  0.1462  0.1697
    1CHOL    R131034   5.338  11.598   3.602 -0.1377  0.0921  0.1586
    1CHOL    R231035   5.296  11.357   3.730  0.0789  0.0327  0.1099
    1CHOL    R331036   5.540  11.408   3.838  0.0652  0.1922  0.0703
    1CHOL    R431037   5.405  11.238   4.036  0.3109 -0.1726 -0.0473
    1CHOL    R531038   5.497  11.433   4.072  0.1122 -0.0978  0.1187
    1CHOL    C131039   5.697  11.218   4.315  0.4332 -0.1424 -0.1761
    1CHOL    C231040   5.681  11.357   4.729 -0.0119 -0.2580 -0.2292
    1CHOL   ROH31041   8.157   2.171   6.012 -0.1020 -0.0220 -0.0390
    1CHOL    R131042   8.003   2.249   5.788  0.0526  0.1781 -0.0784
    1CHOL    R231043   7.810   2.086   5.677  0.1989  0.2330 -0.4222
    1CHOL    R331044   7.650   2.303   5.716  0.0903  0.1337 -0.3031
    1CHOL    R431045   7.472   2.098   5.605  0.1760  0.0798 -0.3448
    1CHOL    R531046   7.500   2.300   5.529  0.0515  0.1262 -0.2724
    1CHOL    C131047   7.125   2.308   5.601  0.0606 -0.1026 -0.1879
    1CHOL    C231048   6.990   2.314   5.292 -0.2363  0.1486  0.3137
    1CHOL   ROH31049  29.238  16.421   2.728  0.0897  0.0971  0.1553
    1CHOL    R131050  29.401  16.449   2.957  0.1902 -0.3317  0.1451
    1CHOL    R231051  29.320  16.590   3.181  0.5852 -0.0704  0.1293
    1CHOL    R331052  29.382  16.358   3.309 -0.0524 -0.2433  0.1574
    1CHOL    R431053  29.318  16.549   3.524  0.5624  0.0121  0.1399
    1CHOL    R531054  29.500  16.429   3.505  0.2245 -0.5379  0.1079
    1CHOL    C131055  29.375  16.307   3.844 -0.0493 -0.1018  0.1725
    1CHOL    C231056  29.292  16.541   4.106 -0.0287 -0.0529 -0.0048
    1CHOL   ROH31057  10.709  14.799   3.469 -0.1930 -0.1325  0.1036
    1CHOL    R131058  10.848  14.886   3.700 -0.0546 -0.1432  0.0257
    1CHOL    R231059  10.726  15.031   3.901  0.1126  0.0171  0.0152
    1CHOL    R331060  10.824  14.833   4.059  0.0269  0.0059  0.0541
    1CHOL    R431061  10.785  15.061   4.240  0.1127  0.0535  0.0118
    1CHOL    R531062  10.969  14.946   4.213  0.0670 -0.0254  0.0388
    1CHOL    C131063  10.911  14.892   4.586  0.0323  0.0641  0.0464
    1CHOL    C231064  10.981  14.780   4.878  0.0652  0.2547  0.0988
    1CHOL   ROH31065  23.053  12.534   3.535  0.0735 -0.0114 -0.0413
    1CHOL    R131066  23.076  12.259   3.598  0.1786 -0.0367 -0.1754
    1CHOL    R231067  23.320  12.131   3.615  0.2550  0.1079  0.0256
    1CHOL    R331068  23.230  12.061   3.862  0.0112 -0.0807 -0.1132
    1CHOL    R431069  23.426  11.854   3.793  0.3097  0.1562  0.0656
    1CHOL    R531070  23.220  11.822   3.857  0.2668 -0.0850 -0.2105
    1CHOL    C131071  23.403  11.628   4.129  0.1126  0.0073 -0.0414
    1CHOL    C231072  23.652  11.262   4.091 -0.0081  0.1213  0.1997
    1CHOL   ROH31073  29.842  10.733   2.927 -0.1402  0.0996 -0.0701
    1CHOL    R131074  29.901  10.823   3.189 -0.1365  0.0373 -0.0479
    1CHOL    R231075  29.713  10.947   3.349 -0.1036  0.1200 -0.0604
    1CHOL    R331076  29.783  10.753   3.526 -0.2346  0.0551 -0.0808
    1CHOL    R431077  29.729  10.988   3.692  0.1857  0.1366 -0.0743
    1CHOL    R531078  29.910  10.867   3.693  0.0263 -0.0942 -0.1811
    1CHOL    C131079  29.804  10.829   4.058  0.2311  0.0853 -0.1016
    1CHOL    C231080  29.720  10.716   4.430  0.0896 -0.0709  0.1659
    1CHOL   ROH31081  25.506  10.339   3.480 -0.0090  0.0999  0.0294
    1CHOL    R131082  25.472  10.541   3.676  0.0596  0.0995  0.0416
    1CHOL    R231083  25.523  10.807   3.625 -0.0766  0.1145 -0.0137
    1CHOL    R331084  25.269  10.840   3.715 -0.0242  0.0268  0.1723
    1CHOL    R431085  25.360  11.111   3.651 -0.1835  0.0537  0.0402
    1CHOL    R531086  25.276  11.044   3.840 -0.0125  0.0588  0.1220
    1CHOL    C131087  25.027  11.319   3.750 -0.1959 -0.0641  0.2462
    1CHOL    C231088  24.550  11.551   3.764 -0.1975  0.1254  0.3818
    1CHOL   ROH31089   2.831  15.563   2.373 -0.1716  0.0825 -0.0635
    1CHOL    R131090   2.842  15.432   2.624 -0.1275 -0.0306 -0.1226
    1CHOL    R231091   3.052  15.466   2.801 -0.0691 -0.1507 -0.1631
    1CHOL    R331092   2.853  15.533   2.973 -0.0095 -0.1846 -0.0818
    1CHOL    R431093   3.085  15.489   3.144  0.0754 -0.0977 -0.1808
    1CHOL    R531094   2.891  15.395   3.165  0.1127 -0.1477 -0.0814
    1CHOL    C131095   2.918  15.565   3.506  0.2156 -0.0986 -0.1148
    1CHOL    C231096   2.837  15.590   3.944  0.0503  0.1953  0.2393
    1CHOL   ROH31097  27.372  15.684   5.649 -0.0753  0.0302 -0.1221
    1CHOL    R131098  27.227  15.671   5.406 -0.1534  0.0976 -0.0798
    1CHOL    R231099  27.245  15.866   5.211  0.0407 -0.0104 -0.1746
    1CHOL    R331100  27.306  15.655   5.051 -0.2585 -0.1638 -0.0940
    1CHOL    R431101  27.219  15.864   4.866  0.1754 -0.0530 -0.1846
    1CHOL    R531102  27.142  15.661   4.878 -0.1828  0.0777 -0.1606
    1CHOL    C131103  27.262  15.665   4.516 -0.0269 -0.2218 -0.1147
    1CHOL    C231104  27.206  15.329   4.383  0.1834  0.1893  0.3375
    1CHOL   ROH31105  14.639  10.628   3.648 -0.0613 -0.0659 -0.0385
    1CHOL    R131106  14.769  10.531   3.880 -0.1008 -0.1208 -0.0386
    1CHOL    R231107  14.739  10.650   4.127  0.0387 -0.0363 -0.0572
    1CHOL    R331108  14.669  10.398   4.204 -0.1591  0.0369  0.0076
    1CHOL    R431109  14.758  10.530   4.451  0.3018 -0.0921 -0.0912
    1CHOL    R531110  14.831  10.340   4.370 -0.0184 -0.1689 -0.2000
    1CHOL    C131111  14.703  10.224   4.711  0.2694 -0.0560 -0.0502
    1CHOL    C231112  14.667  10.354   5.005  0.1080 -0.1063  0.1458
    1CHOL   ROH31113   4.464   8.683   3.854 -0.4385  0.1254  0.1161
    1CHOL    R131114   4.438   8.473   4.042 -0.5274  0.0443  0.0126
    1CHOL    R231115   4.224   8.297   4.039 -0.4050 -0.1002 -0.3115
    1CHOL    R331116   4.421   8.110   4.032 -0.2663  0.0327 -0.1311
    1CHOL    R431117   4.204   7.983   4.183 -0.3586 -0.1397 -0.3883
    1CHOL    R531118   4.412   8.005   4.246 -0.4353 -0.0100 -0.1543
    1CHOL    C131119   4.378   7.625   4.260 -0.2014 -0.0379 -0.2636
    1CHOL    C231120   4.066   7.316   4.261  0.0489 -0.4195 -0.1071
    1CHOL   ROH31121   0.581  21.872   6.022 -0.0043  0.1372 -0.0012
    1CHOL    R131122   0.728  21.901   5.782 -0.0674  0.1268 -0.0411
    1CHOL    R231123   0.688  21.737   5.563 -0.2028  0.1891 -0.0626
    1CHOL    R331124   0.653  21.973   5.433 -0.1460  0.2306 -0.0036
    1CHOL    R431125   0.729  21.782   5.223 -0.2258  0.2533 -0.0570
    1CHOL    R531126   0.824  21.974   5.265 -0.1624  0.2164 -0.0222
    1CHOL    C131127   0.719  22.031   4.903 -0.1858  0.3298  0.0017
    1CHOL    C231128   0.903  22.120   4.601 -0.1740  0.0081  0.1044
    1CHOL   ROH31129   5.812  17.429   5.434 -0.0057 -0.2125 -0.1442
    1CHOL    R131130   5.769  17.546   5.180 -0.1496 -0.1942 -0.1131
    1CHOL    R231131   5.974  17.595   5.002 -0.1831  0.2317 -0.0508
    1CHOL    R331132   5.819  17.450   4.833  0.1076  0.0123 -0.1346
    1CHOL    R431133   5.966  17.636   4.659 -0.1166  0.2642 -0.0481
    1CHOL    R531134   5.749  17.608   4.666 -0.0758 -0.0746 -0.1374
    1CHOL    C131135   5.815  17.523   4.300  0.1950  0.0770 -0.1251
    1CHOL    C231136   5.790  17.600   3.902 -0.0978 -0.0890  0.1667
    1CHOL   ROH31137   1.775  12.860   6.034  0.0013 -0.0928  0.1983
    1CHOL    R131138   1.868  12.894   5.769  0.0735  0.0192  0.2355
    1CHOL    R231139   1.928  12.680   5.604  0.2524  0.0850  0.2022
    1CHOL    R331140   1.754  12.804   5.436  0.2354  0.0258  0.1789
    1CHOL    R431141   1.892  12.608   5.268  0.2450  0.0063  0.2212
    1CHOL    R531142   1.873  12.821   5.229  0.2215 -0.0097  0.1722
    1CHOL    C131143   1.708  12.682   4.914  0.2248 -0.0950  0.2105
    1CHOL    C231144   1.813  12.493   4.786 -0.2532  0.1264 -0.1913
    1CHOL   ROH31145   9.032  18.944   5.528 -0.2325  0.0727  0.1094
    1CHOL    R131146   9.053  19.065   5.273 -0.0550 -0.0002  0.0885
    1CHOL    R231147   8.907  18.979   5.055  0.1305 -0.0911 -0.0008
    1CHOL    R331148   8.831  19.240   5.044  0.0914 -0.1070 -0.1398
    1CHOL    R431149   8.783  19.137   4.774 -0.1187 -0.3239 -0.0261
    1CHOL    R531150   8.900  19.313   4.827 -0.0936 -0.2658 -0.2566
    1CHOL    C131151   8.640  19.474   4.600 -0.3006 -0.4741 -0.1713
    1CHOL    C231152   8.664  19.825   4.422 -0.1559  0.1726  0.0821
    1CHOL   ROH31153  29.190  21.070   6.106  0.0922  0.1800  0.0857
    1CHOL    R131154  29.136  21.040   5.830  0.0973  0.0779  0.0953
    1CHOL    R231155  29.023  21.240   5.677  0.1007  0.0239  0.0173
    1CHOL    R331156  29.243  21.200   5.521  0.1049 -0.0360  0.0392
    1CHOL    R431157  29.056  21.345   5.349  0.2460  0.1963  0.0850
    1CHOL    R531158  29.154  21.156   5.303  0.1225  0.1558 -0.0060
    1CHOL    C131159  29.281  21.367   5.012  0.3345  0.2406  0.1450
    1CHOL    C231160  29.401  21.289   4.508  0.2618 -0.0864 -0.1359
    1CHOL   ROH31161   0.725  18.237   5.847 -0.0100 -0.1822 -0.0107
    1CHOL    R131162   0.832  18.324   5.600  0.0650 -0.2357  0.0012
    1CHOL    R231163   0.852  18.158   5.380 -0.0181 -0.2410 -0.0107
    1CHOL    R331164   0.714  18.357   5.257  0.1104 -0.1485 -0.0042
    1CHOL    R431165   0.744  18.150   5.052 -0.1229 -0.1984  0.0237
    1CHOL    R531166   0.799  18.360   5.034  0.0430 -0.2521 -0.0268
    1CHOL    C131167   0.551  18.333   4.746 -0.0632 -0.0864  0.0497
    1CHOL    C231168   0.571  18.236   4.326 -0.0540  0.1940  0.0593
    1CHOL   ROH31169   1.395  19.159   1.930 -0.2748  0.1727  0.1813
    1CHOL    R131170   1.274  19.141   2.185 -0.4930 -0.1537  0.0588
    1CHOL    R231171   1.116  18.926   2.261  0.0550 -0.6220 -0.0909
    1CHOL    R331172   1.289  18.915   2.470 -0.1155 -0.0877  0.1000
    1CHOL    R431173   1.033  18.824   2.580 -0.0150 -0.7974 -0.1622
    1CHOL    R531174   1.159  18.983   2.659 -0.5336 -0.4046 -0.0483
    1CHOL    C131175   1.147  18.753   2.963 -0.2157 -0.3981 -0.0246
    1CHOL    C231176   1.157  18.790   3.447 -0.2730  0.1686 -0.1290
    1CHOL   ROH31177  28.116  13.804   6.062 -0.1032  0.0105  0.0232
    1CHOL    R131178  28.068  13.902   5.801 -0.1616  0.0367  0.0436
    1CHOL    R231179  28.207  13.813   5.580 -0.0734  0.1990  0.0313
    1CHOL    R331180  27.958  13.765   5.483 -0.0303  0.0263  0.0024
    1CHOL    R431181  28.139  13.694   5.263  0.0366  0.3781 -0.0613
    1CHOL    R531182  27.970  13.832   5.253 -0.1028  0.2198  0.0531
    1CHOL    C131183  27.865  13.579   4.987  0.1409  0.3202 -0.1423
    1CHOL    C231184  27.661  13.614   4.569 -0.0145 -0.1930 -0.1164
    1CHOL   ROH31185   0.090  12.585   5.944 -0.0610 -0.1836  0.0772
    1CHOL    R131186   0.246  12.591   5.708 -0.0607 -0.1360  0.0786
    1CHOL    R231187   0.263  12.376   5.536 -0.0705 -0.0966  0.0292
    1CHOL    R331188   0.186  12.559   5.351 -0.0614 -0.0503  0.0707
    1CHOL    R431189   0.303  12.340   5.195 -0.0585 -0.0156  0.0217
    1CHOL    R531190   0.358  12.551   5.184 -0.0549 -0.0130  0.0747
    1CHOL    C131191   0.254  12.491   4.822 -0.0431  0.0751  0.0565
    1CHOL    C231192   0.547  12.442   4.526 -0.0865  0.2191 -0.0307
    1CHOL   ROH31193  10.046  14.261   6.386  0.1392  0.1409  0.0082
    1CHOL    R131194   9.929  14.142   6.157  0.2485  0.1670 -0.0625
    1CHOL    R231195  10.065  14.112   5.918  0.5281 -0.2259  0.1358
    1CHOL    R331196   9.994  13.851   5.949  0.0631 -0.0973  0.2372
    1CHOL    R431197   9.998  13.893   5.659  0.5397 -0.3064  0.2006
    1CHOL    R531198   9.833  13.812   5.776  0.2357  0.0416  0.0374
    1CHOL    C131199   9.892  13.520   5.537  0.1100 -0.2325  0.3335
    1CHOL    C231200   9.672  13.607   5.278 -0.0102 -0.0706 -0.0786
    1CHOL   ROH31201  29.791  15.016   2.503  0.4111  0.1412  0.0205
    1CHOL    R131202  29.733  14.936   2.769  0.2613  0.0618 -0.0352
    1CHOL    R231203  29.909  14.787   2.921  0.2684  0.2003  0.0927
    1CHOL    R331204  29.877  14.991   3.098 -0.0571  0.1544  0.0924
    1CHOL    R431205  29.938  14.757   3.264  0.2089  0.2249  0.1001
    1CHOL    R531206  29.767  14.890   3.285  0.0206 -0.0029  0.0562
    1CHOL    C131207  29.924  14.931   3.630 -0.1316  0.1961  0.1041
    1CHOL    C231208  29.913  14.687   3.781  0.0647 -0.0699 -0.0945
    1CHOL   ROH31209  29.430  21.888   2.689  0.1290  0.0513  0.1084
    1CHOL    R131210  29.512  21.820   2.951  0.1032  0.2339  0.1657
    1CHOL    R231211  29.469  21.985   3.168 -0.3398  0.1830  0.1269
    1CHOL    R331212  29.352  21.763   3.273  0.0105 -0.0339  0.0742
    1CHOL    R431213  29.443  21.915   3.506 -0.2747  0.0829  0.1111
    1CHOL    R531214  29.488  21.707   3.461  0.0788  0.1605  0.0840
    1CHOL    C131215  29.318  21.665   3.800  0.0919 -0.1791  0.0525
    1CHOL    C231216  29.021  21.677   4.020  0.0545 -0.0518  0.3175
    1CHOL   ROH31217  26.769  23.681   6.171 -0.1566 -0.3358  0.1066
    1CHOL    R131218  26.887  23.609   5.924 -0.0377 -0.0370  0.0743
    1CHOL    R231219  26.768  23.433   5.748  0.2372 -0.1344 -0.0071
    1CHOL    R331220  26.800  23.637   5.572 -0.0683 -0.0001  0.0827
    1CHOL    R431221  26.744  23.403   5.405  0.1534  0.0025 -0.0157
    1CHOL    R531222  26.914  23.538   5.386 -0.0070  0.2224 -0.0082
    1CHOL    C131223  26.761  23.578   5.039 -0.1821  0.2085  0.0637
    1CHOL    C231224  26.949  23.836   4.730 -0.0105 -0.0741 -0.2610
    1CHOL   ROH31225   5.147  12.503   2.990 -0.0916  0.1078 -0.0167
    1CHOL    R131226   5.267  12.381   3.215 -0.0560  0.1082 -0.0356
    1CHOL    R231227   5.451  12.511   3.375  0.0376  0.0765 -0.1194
    1CHOL    R331228   5.279  12.442   3.574  0.0826  0.1648 -0.0488
    1CHOL    R431229   5.505  12.571   3.711  0.2086  0.0528 -0.1416
    1CHOL    R531230   5.422  12.374   3.754  0.1244  0.0929 -0.1069
    1CHOL    C131231   5.375  12.540   4.094  0.3503  0.1218 -0.0882
    1CHOL    C231232   5.428  12.425   4.468 -0.1362 -0.1549  0.0804
    1CHOL   ROH31233  22.996  24.799   5.642 -0.1744  0.1015  0.0840
    1CHOL    R131234  22.968  24.770   5.361 -0.0210  0.0491  0.0746
    1CHOL    R231235  22.732  24.690   5.243  0.0520  0.0094 -0.0367
    1CHOL    R331236  22.765  24.918   5.099  0.1085 -0.0152 -0.0647
    1CHOL    R431237  22.579  24.757   4.940 -0.0600  0.0736  0.0325
    1CHOL    R531238  22.765  24.845   4.871 -0.0415 -0.0315 -0.0631
    1CHOL    C131239  22.521  25.010   4.629 -0.0720  0.0881  0.0465
    1CHOL    C231240  22.559  24.918   4.237  0.1879  0.1980 -0.2235
    1CHOL   ROH31241   1.706  21.655   5.826 -0.0530 -0.0674 -0.0370
    1CHOL    R131242   1.682  21.605   5.549 -0.1494  0.0460 -0.0499
    1CHOL    R231243   1.646  21.808   5.364  0.0592  0.1485  0.0186
    1CHOL    R331244   1.865  21.697   5.248 -0.0828 -0.0710 -0.0453
    1CHOL    R431245   1.701  21.787   5.023 -0.0215  0.1677  0.0042
    1CHOL    R531246   1.781  21.587   5.053 -0.2401  0.0690 -0.0577
    1CHOL    C131247   1.939  21.671   4.716 -0.2018 -0.0274 -0.0641
    1CHOL    C231248   1.958  21.814   4.325 -0.0013 -0.0556  0.1520
    1CHOL   ROH31249  12.919  12.962   6.461 -0.0107  0.0560  0.0461
    1CHOL    R131250  13.099  13.146   6.343 -0.0070 -0.0654 -0.1430
    1CHOL    R231251  13.061  13.249   6.089 -0.1899 -0.0606 -0.1179
    1CHOL    R331252  13.083  13.488   6.218  0.0843 -0.0650 -0.1518
    1CHOL    R431253  13.028  13.558   5.939 -0.2140 -0.0486 -0.0870
    1CHOL    R531254  13.194  13.630   6.061 -0.0318 -0.1267 -0.2885
    1CHOL    C131255  13.029  13.962   5.972  0.0295 -0.0456 -0.1010
    1CHOL    C231256  12.947  14.166   5.768  0.2281 -0.0527 -0.1009
    1CHOL   ROH31257   9.679  22.344   5.185  0.1218 -0.0191  0.0352
    1CHOL    R131258   9.774  22.206   4.957  0.2472 -0.2374  0.2162
    1CHOL    R231259   9.816  22.331   4.714 -0.1372 -0.5657 -0.0281
    1CHOL    R331260  10.064  22.224   4.739  0.0914 -0.0557  0.0179
    1CHOL    R431261  10.041  22.292   4.455 -0.1361 -0.3994 -0.0549
    1CHOL    R531262  10.096  22.098   4.538  0.2730 -0.2159  0.1410
    1CHOL    C131263  10.406  22.168   4.328  0.0791  0.1760 -0.0272
    1CHOL    C231264  10.799  22.060   4.148 -0.3029  0.0748  0.0532
    1CHOL   ROH31265   1.390  15.246   5.827  0.2571 -0.0574 -0.0687
    1CHOL    R131266   1.248  15.286   5.585  0.1935  0.1956  0.0076
    1CHOL    R231267   1.333  15.462   5.390  0.4392  0.0026 -0.0629
    1CHOL    R331268   1.313  15.243   5.230 -0.0942  0.0115 -0.0260
    1CHOL    R431269   1.336  15.469   5.044  0.5350 -0.0628 -0.0640
    1CHOL    R531270   1.180  15.316   5.045  0.1283  0.3310 -0.0689
    1CHOL    C131271   1.318  15.267   4.693  0.0901 -0.0924 -0.0300
    1CHOL    C231272   1.341  15.182   4.256 -0.2177 -0.0443 -0.0885
    1CHOL   ROH31273   4.383  19.077   5.217 -0.2097 -0.0200 -0.1419
    1CHOL    R131274   4.317  18.889   5.015 -0.1201 -0.0316 -0.1601
    1CHOL    R231275   4.155  18.952   4.800 -0.0021 -0.0353 -0.2511
    1CHOL    R331276   4.366  18.859   4.656  0.0671 -0.0667 -0.1324
    1CHOL    R431277   4.132  18.804   4.488  0.1516 -0.1127 -0.2278
    1CHOL    R531278   4.284  18.661   4.550  0.1243 -0.0933 -0.1237
    1CHOL    C131279   4.316  18.631   4.172  0.3060 -0.1870 -0.1028
    1CHOL    C231280   4.402  18.330   4.045 -0.1221  0.5066 -0.1803
    1CHOL   ROH31281  28.319  19.040   5.460 -0.0623 -0.1327 -0.1901
    1CHOL    R131282  28.243  18.996   5.190 -0.0688 -0.0888 -0.1954
    1CHOL    R231283  28.210  19.203   5.010  0.0003 -0.0642 -0.1807
    1CHOL    R331284  28.387  19.059   4.862 -0.0401 -0.1086 -0.1865
    1CHOL    R431285  28.240  19.221   4.666  0.1143  0.0589 -0.1649
    1CHOL    R531286  28.267  19.005   4.662 -0.0129  0.0443 -0.2456
    1CHOL    C131287  28.425  19.097   4.327  0.1427  0.0891 -0.1613
    1CHOL    C231288  28.136  19.288   4.016  0.2239  0.2122 -0.0806
    1CHOL   ROH31289   9.249  24.887   3.275 -0.0074 -0.1396  0.0032
    1CHOL    R131290   9.246  24.760   3.528  0.0552 -0.1784 -0.0154
    1CHOL    R231291   9.052  24.577   3.600  0.0676 -0.1836  0.0081
    1CHOL    R331292   9.267  24.418   3.652  0.0766 -0.1982 -0.0738
    1CHOL    R431293   9.055  24.318   3.828  0.1957 -0.0578  0.1519
    1CHOL    R531294   9.256  24.379   3.888  0.2564 -0.0649 -0.0415
    1CHOL    C131295   9.258  24.017   4.010  0.2787  0.0017  0.1586
    1CHOL    C231296   9.000  23.857   4.249 -0.2600  0.2140  0.1877
    1CHOL   ROH31297   9.066  29.210   3.649 -0.0689 -0.1669 -0.0013
    1CHOL    R131298   8.927  29.318   3.871 -0.0317 -0.0735 -0.0252
    1CHOL    R231299   8.780  29.161   4.043 -0.0666  0.0140  0.0113
    1CHOL    R331300   8.936  29.279   4.232 -0.0361  0.0177 -0.0130
    1CHOL    R431301   8.710  29.166   4.382 -0.0729  0.0942  0.0108
    1CHOL    R531302   8.780  29.373   4.388 -0.0226  0.0866 -0.0320
    1CHOL    C131303   8.816  29.280   4.757 -0.0480  0.1441 -0.0123
    1CHOL    C231304   8.646  29.245   5.135 -0.1868 -0.2293  0.5071
    1CHOL   ROH31305  29.631  29.709   6.372 -0.1260  0.0019 -0.1207
    1CHOL    R131306  29.639  29.568   6.127 -0.0446 -0.0583 -0.0838
    1CHOL    R231307  29.875  29.504   5.999 -0.0028 -0.0737  0.0011
    1CHOL    R331308  29.775  29.252   6.008  0.0118 -0.0788  0.0340
    1CHOL    R431309  30.015  29.231   5.841  0.0375 -0.0970  0.0754
    1CHOL    R531310  29.814  29.165   5.788  0.0504 -0.1194  0.0571
    1CHOL    C131311  30.002  28.834   5.756  0.0746 -0.1152  0.1495
    1CHOL    C231312  30.277  28.823   5.494 -0.0213 -0.1390  0.0316
    1CHOL   ROH31313   4.539  10.698   5.901  0.1926  0.1710  0.0554
    1CHOL    R131314   4.665  10.720   5.649  0.0033  0.0348 -0.0545
    1CHOL    R231315   4.523  10.736   5.412 -0.1880  0.2349  0.0666
    1CHOL    R331316   4.671  10.961   5.376  0.0671  0.0563 -0.0334
    1CHOL    R431317   4.582  10.888   5.107 -0.0877  0.0884  0.0124
    1CHOL    R531318   4.787  10.925   5.171 -0.0278 -0.1326 -0.0532
    1CHOL    C131319   4.755  11.188   4.896  0.2102 -0.1646 -0.1129
    1CHOL    C231320   4.680  11.256   4.563 -0.4819  0.0520 -0.2507
    1CHOL   ROH31321   8.804  17.281   5.353  0.1729 -0.1456  0.0298
    1CHOL    R131322   8.833  17.215   5.079  0.1357 -0.0514  0.0027
    1CHOL    R231323   8.668  17.033   4.952  0.2087 -0.1167 -0.0017
    1CHOL    R331324   8.628  17.239   4.779  0.0349 -0.0898  0.0682
    1CHOL    R431325   8.572  16.998   4.622 -0.0288 -0.0674  0.0601
    1CHOL    R531326   8.711  17.157   4.570 -0.1027 -0.0275 -0.0110
    1CHOL    C131327   8.479  17.171   4.267 -0.3302 -0.0137  0.1617
    1CHOL    C231328   8.286  16.918   4.025  0.1996 -0.0047  0.0527
    1CHOL   ROH31329   7.107  27.050   3.678  0.1090 -0.1441 -0.1473
    1CHOL    R131330   7.088  27.012   3.958  0.0703 -0.0081 -0.1299
    1CHOL    R231331   7.182  26.785   4.085 -0.2009 -0.0786 -0.0388
    1CHOL    R331332   7.319  26.965   4.235  0.0251 -0.1795 -0.1220
    1CHOL    R431333   7.202  26.781   4.430 -0.2309  0.0786 -0.0356
    1CHOL    R531334   7.183  26.998   4.429  0.0548  0.1027 -0.1490
    1CHOL    C131335   7.342  26.948   4.772 -0.0362  0.0752 -0.1118
    1CHOL    C231336   7.645  26.996   5.104  0.0312 -0.3040 -0.0473
    1CHOL   ROH31337  24.648  16.125   2.565 -0.0177 -0.0217 -0.0061
    1CHOL    R131338  24.711  16.204   2.829 -0.1141  0.0828 -0.0147
    1CHOL    R231339  24.523  16.315   3.000 -0.2518 -0.1334 -0.0278
    1CHOL    R331340  24.603  16.114   3.164 -0.0001 -0.0196 -0.0035
    1CHOL    R431341  24.487  16.315   3.343 -0.4930 -0.2380 -0.0510
    1CHOL    R531342  24.685  16.225   3.360 -0.3323  0.1122  0.0715
    1CHOL    C131343  24.540  16.126   3.698 -0.3974 -0.1921 -0.0416
    1CHOL    C231344  24.600  16.162   4.022 -0.2637  0.1613  0.1426
    1CHOL   ROH31345  15.969   7.373   4.791 -0.0120  0.0216  0.0382
    1CHOL    R131346  15.929   7.535   4.562  0.0177  0.0083  0.0225
    1CHOL    R231347  15.728   7.726   4.547  0.0380  0.0326 -0.0034
    1CHOL    R331348  15.935   7.891   4.486  0.0620  0.0014 -0.0037
    1CHOL    R431349  15.704   8.008   4.350  0.0649  0.0833  0.0667
    1CHOL    R531350  15.895   7.956   4.260  0.0350  0.0629  0.0201
    1CHOL    C131351  15.884   8.328   4.177  0.1031  0.0834  0.1073
    1CHOL    C231352  15.932   8.793   4.159  0.1754  0.4227 -0.0946
    1CHOL   ROH31353   0.592  17.280   5.922 -0.0699  0.1585 -0.1035
    1CHOL    R131354   0.649  17.324   5.648 -0.1606  0.2794 -0.1031
    1CHOL    R231355   0.595  17.137   5.453  0.2038  0.1729 -0.1051
    1CHOL    R331356   0.459  17.342   5.338 -0.2079 -0.0852 -0.1005
    1CHOL    R431357   0.476  17.139   5.128  0.3398 -0.0009 -0.1577
    1CHOL    R531358   0.537  17.347   5.112 -0.1113  0.1528 -0.0666
    1CHOL    C131359   0.279  17.333   4.832  0.0326 -0.3445 -0.1840
    1CHOL    C231360   0.277  17.287   4.560  0.2011  0.0189  0.2450
    1CHOL   ROH31361  25.494  19.253   5.928  0.2014  0.0970  0.0717
    1CHOL    R131362  25.406  19.379   5.691  0.1541  0.1396  0.1120
    1CHOL    R231363  25.579  19.447   5.486  0.0747 -0.0763 -0.0277
    1CHOL    R331364  25.406  19.302   5.335 -0.1864  0.0692  0.1236
    1CHOL    R431365  25.502  19.513   5.156  0.0150 -0.1373 -0.0263
    1CHOL    R531366  25.294  19.465   5.200 -0.0359  0.1539  0.0946
    1CHOL    C131367  25.294  19.415   4.821 -0.2651 -0.0366  0.1165
    1CHOL    C231368  25.266  19.523   4.454  0.1779  0.0236 -0.0846
    1CHOL   ROH31369   4.376  28.186   3.994  0.1506 -0.0474 -0.0145
    1CHOL    R131370   4.352  28.280   4.260 -0.0049 -0.1328  0.0019
    1CHOL    R231371   4.262  28.119   4.467  0.0961 -0.2687 -0.0599
    1CHOL    R331372   4.495  28.196   4.584 -0.0038 -0.0730  0.0174
    1CHOL    R431373   4.325  28.107   4.806  0.1048 -0.5209 -0.0681
    1CHOL    R531374   4.427  28.299   4.789 -0.1479 -0.3628  0.1221
    1CHOL    C131375   4.581  28.172   5.114  0.0161 -0.4839 -0.0003
    1CHOL    C231376   4.863  28.189   5.279  0.3503  0.3895 -0.0504
    1CHOL   ROH31377   3.814  20.904   2.176  0.0866  0.2351 -0.0381
    1CHOL    R131378   3.897  21.100   2.362  0.2786  0.2002 -0.0854
    1CHOL    R231379   3.892  21.058   2.635 -0.0781  0.3788 -0.0574
    1CHOL    R331380   4.154  21.130   2.618  0.0898 -0.1333  0.1505
    1CHOL    R431381   4.102  21.103   2.906 -0.2841  0.2575  0.1256
    1CHOL    R531382   4.187  21.277   2.805  0.1610 -0.0001  0.0336
    1CHOL    C131383   4.469  21.197   3.049 -0.2465 -0.2942  0.4273
    1CHOL    C231384   4.413  21.032   3.424 -0.0865 -0.0152  0.2460
    1CHOL   ROH31385  22.459  29.489   6.044 -0.2649 -0.1247  0.0764
    1CHOL    R131386  22.595  29.639   5.846 -0.1372 -0.1496  0.1438
    1CHOL    R231387  22.483  29.699   5.600  0.0363 -0.2171  0.0448
    1CHOL    R331388  22.543  29.954   5.671 -0.0502 -0.1944  0.0369
    1CHOL    R431389  22.589  29.946   5.383 -0.0306 -0.1922  0.0408
    1CHOL    R531390  22.730  30.012   5.534 -0.0614 -0.1398  0.0458
    1CHOL    C131391  22.707  30.329   5.323 -0.1509 -0.1566  0.0309
    1CHOL    C231392  22.859   0.377   5.190 -0.1914  0.1923 -0.1437
    1CHOL   ROH31393   1.484  21.991   2.897 -0.0973  0.1955  0.0537
    1CHOL    R131394   1.506  21.842   3.137 -0.0936 -0.0764 -0.1108
    1CHOL    R231395   1.394  21.927   3.375  0.2008 -0.1684  0.0649
    1CHOL    R331396   1.278  21.682   3.370 -0.1170 -0.0209 -0.0956
    1CHOL    R431397   1.289  21.752   3.654 -0.0089 -0.2301 -0.0499
    1CHOL    R531398   1.366  21.570   3.562 -0.2480 -0.2684 -0.1768
    1CHOL    C131399   1.119  21.419   3.811 -0.4294 -0.1276 -0.2674
    1CHOL    C231400   0.874  21.239   4.070  0.2476 -0.0359 -0.0987
    1CHOL   ROH31401  15.011  30.190   4.181 -0.0619  0.0052 -0.0503
    1CHOL    R131402  15.007  29.911   4.136  0.0378  0.0086 -0.0820
    1CHOL    R231403  15.238  29.761   4.111  0.0919  0.0765  0.0099
    1CHOL    R331404  15.124  29.613   4.310  0.0403  0.0233 -0.0584
    1CHOL    R431405  15.395  29.505   4.283  0.1420  0.2149  0.1730
    1CHOL    R531406  15.209  29.392   4.275  0.2284  0.0784  0.0407
    1CHOL    C131407  15.380  29.218   4.569  0.1228  0.2455  0.2038
    1CHOL    C231408  15.494  29.100   4.867 -0.0123 -0.3240  0.0509
    1CHOL   ROH31409   3.672  19.624   2.238 -0.1034  0.0701 -0.0840
    1CHOL    R131410   3.765  19.570   2.500  0.0012  0.0360 -0.1273
    1CHOL    R231411   3.871  19.766   2.663  0.0582  0.0180 -0.1386
    1CHOL    R331412   3.682  19.677   2.838  0.1279 -0.0149 -0.0801
    1CHOL    R431413   3.885  19.807   3.006  0.0350  0.2370 -0.1626
    1CHOL    R531414   3.808  19.604   3.028  0.1854  0.1937 -0.0368
    1CHOL    C131415   3.716  19.747   3.370  0.0868  0.3337 -0.1217
    1CHOL    C231416   3.915  19.904   3.627 -0.0690 -0.0024  0.0458
    1CHOL   ROH31417  25.423  12.472   2.998 -0.0584 -0.1647 -0.0490
    1CHOL    R131418  25.348  12.659   3.198  0.2754 -0.0895  0.0108
    1CHOL    R231419  25.097  12.660   3.314  0.2122  0.4261 -0.1150
    1CHOL    R331420  25.240  12.646   3.545  0.0743 -0.0252 -0.0461
    1CHOL    R431421  24.971  12.726   3.629  0.1833  0.5199 -0.1454
    1CHOL    R531422  25.158  12.827   3.677  0.3972  0.0910  0.0125
    1CHOL    C131423  25.032  12.751   4.029  0.0371  0.1507 -0.0983
    1CHOL    C231424  24.806  13.073   4.031 -0.0168  0.1098  0.0565
    1CHOL   ROH31425  24.409  21.489   5.413 -0.0495  0.1951  0.0342
    1CHOL    R131426  24.426  21.278   5.224 -0.0686  0.1054  0.1312
    1CHOL    R231427  24.274  21.273   4.992 -0.0612  0.0169  0.1266
    1CHOL    R331428  24.517  21.244   4.874 -0.0602 -0.0669  0.1497
    1CHOL    R431429  24.324  21.176   4.664 -0.0629  0.0136  0.1276
    1CHOL    R531430  24.492  21.054   4.731 -0.1149 -0.0504  0.1385
    1CHOL    C131431  24.581  21.092   4.362 -0.0630 -0.0668  0.1498
    1CHOL    C231432  24.892  20.926   4.061 -0.0324  0.0444 -0.1373
    1CHOL   ROH31433  10.585  23.243   3.101  0.1614  0.0520 -0.0867
    1CHOL    R131434  10.424  23.221   3.333  0.0704  0.0450 -0.1510
    1CHOL    R231435  10.468  23.373   3.559  0.0212 -0.0097 -0.1083
    1CHOL    R331436  10.207  23.441   3.525  0.0479  0.0572 -0.1886
    1CHOL    R431437  10.259  23.487   3.810  0.0064  0.1508 -0.1910
    1CHOL    R531438  10.099  23.365   3.725 -0.0151  0.1648 -0.1783
    1CHOL    C131439   9.893  23.617   3.924  0.0229  0.3067 -0.3146
    1CHOL    C231440   9.690  23.811   4.177  0.2901 -0.2040  0.0321
    1CHOL   ROH31441  28.640  14.419   2.306 -0.1506 -0.0644  0.0571
    1CHOL    R131442  28.707  14.376   2.578 -0.2585 -0.0266  0.0897
    1CHOL    R231443  28.927  14.495   2.697 -0.1441 -0.2326  0.0813
    1CHOL    R331444  28.742  14.581   2.877 -0.0819  0.0643  0.0100
    1CHOL    R431445  28.999  14.620   3.011 -0.0589 -0.4378  0.1454
    1CHOL    R531446  28.828  14.510   3.089 -0.3057 -0.1493  0.0378
    1CHOL    C131447  28.868  14.773   3.363  0.0492 -0.2785  0.1157
    1CHOL    C231448  28.952  14.818   3.776 -0.1276  0.2737  0.2056
    1CHOL   ROH31449  29.407  16.343   5.949 -0.1375  0.2064 -0.0683
    1CHOL    R131450  29.346  16.259   5.686  0.0748 -0.1765 -0.0037
    1CHOL    R231451  29.342  16.434   5.472 -0.4653 -0.3325 -0.1350
    1CHOL    R331452  29.516  16.256   5.364  0.0659  0.0866 -0.0137
    1CHOL    R431453  29.411  16.405   5.134 -0.4434 -0.4059 -0.1242
    1CHOL    R531454  29.413  16.188   5.158  0.2151 -0.4022  0.0581
    1CHOL    C131455  29.615  16.221   4.837  0.0679 -0.0555 -0.0040
    1CHOL    C231456  29.599  16.387   4.500 -0.1866  0.2075 -0.0521
    1CHOL   ROH31457  30.200  21.067   6.039 -0.0406  0.0542  0.0450
    1CHOL    R131458  30.128  21.191   5.796  0.0534  0.1015  0.0418
    1CHOL    R231459  30.309  21.233   5.591  0.0625 -0.1289  0.0052
    1CHOL    R331460  30.123  21.100   5.444 -0.1143  0.0589  0.0534
    1CHOL    R431461  30.315  21.201   5.246  0.0012 -0.2146  0.0113
    1CHOL    R531462  30.099  21.231   5.245  0.0304  0.0475  0.0236
    1CHOL    C131463  30.143  21.058   4.908 -0.2005 -0.0882  0.0600
    1CHOL    C231464  30.347  21.222   4.648  0.3669 -0.1647 -0.3205
    1CHOL   ROH31465  23.972  27.089   4.762 -0.0084 -0.1101  0.1209
    1CHOL    R131466  24.070  26.835   4.839 -0.0237 -0.1707 -0.0536
    1CHOL    R231467  24.281  26.711   4.711  0.0686 -0.0238 -0.0424
    1CHOL    R331468  24.385  26.700   4.961 -0.0795 -0.2434  0.0123
    1CHOL    R431469  24.508  26.474   4.819  0.2831  0.0903 -0.2335
    1CHOL    R531470  24.400  26.465   5.008  0.1668 -0.3006 -0.3062
    1CHOL    C131471  24.738  26.325   5.117  0.2693 -0.0497 -0.2935
    1CHOL    C231472  25.032  26.002   5.045  0.0392 -0.1729  0.0414
    1CHOL   ROH31473  27.948  16.989   2.375  0.0856 -0.1737  0.0377
    1CHOL    R131474  27.807  17.022   2.618  0.2744  0.0020  0.1270
    1CHOL    R231475  27.638  16.828   2.719 -0.1898  0.3442  0.0462
    1CHOL    R331476  27.793  16.853   2.940 -0.0073 -0.2285 -0.0018
    1CHOL    R431477  27.522  16.809   3.044 -0.1103  0.5101  0.0851
    1CHOL    R531478  27.656  16.973   3.096  0.4047  0.1015  0.1218
    1CHOL    C131479  27.602  16.821   3.442  0.1075  0.0690  0.0627
    1CHOL    C231480  27.447  17.052   3.780  0.0119  0.1825  0.1384
    1CHOL   ROH31481   0.462  14.287   2.549  0.0936 -0.1823  0.0187
    1CHOL    R131482   0.557  14.413   2.784  0.0323 -0.0709 -0.0150
    1CHOL    R231483   0.387  14.520   2.974 -0.0222 -0.0963 -0.0453
    1CHOL    R331484   0.526  14.360   3.143  0.0525  0.0142 -0.0014
    1CHOL    R431485   0.328  14.492   3.313 -0.1008 -0.1441 -0.0629
    1CHOL    R531486   0.544  14.486   3.345 -0.1082  0.0257  0.0035
    1CHOL    C131487   0.425  14.324   3.670 -0.0765 -0.0684 -0.0320
    1CHOL    C231488   0.471  14.277   4.066 -0.1977 -0.0577  0.2484
    1CHOL   ROH31489  13.337   9.992   3.782  0.0187 -0.0574  0.0864
    1CHOL    R131490  13.326  10.059   4.057  0.0535 -0.1769  0.1177
    1CHOL    R231491  13.466   9.919   4.250  0.2599 -0.1213  0.0121
    1CHOL    R331492  13.563  10.165   4.313  0.0461 -0.0512  0.0729
    1CHOL    R431493  13.616  10.002   4.550  0.0223 -0.0151  0.1031
    1CHOL    R531494  13.510  10.192   4.544 -0.1121 -0.0903  0.0428
    1CHOL    C131495  13.793  10.282   4.783 -0.3166  0.1124  0.2132
    1CHOL    C231496  14.226  10.194   4.891  0.2819  0.5338  0.1340
    1CHOL   ROH31497  20.970   3.571   6.284  0.0695  0.1231  0.1566
    1CHOL    R131498  20.904   3.491   6.021 -0.0990 -0.1468  0.2769
    1CHOL    R231499  20.646   3.433   5.943 -0.2307  0.2826  0.3760
    1CHOL    R331500  20.697   3.617   5.750  0.1682 -0.1120  0.0843
    1CHOL    R431501  20.481   3.452   5.640 -0.2521  0.2147  0.3826
    1CHOL    R531502  20.672   3.496   5.544 -0.1542 -0.3714  0.2656
    1CHOL    C131503  20.433   3.636   5.282  0.1101 -0.1954  0.1125
    1CHOL    C231504  20.466   3.659   4.843  0.3649  0.5900 -0.0935
    1CHOL   ROH31505  12.685  12.909   3.907 -0.1191 -0.0955  0.0033
    1CHOL    R131506  12.611  13.072   4.126 -0.1325 -0.0270 -0.0526
    1CHOL    R231507  12.350  13.147   4.174 -0.1671 -0.2107  0.0402
    1CHOL    R331508  12.398  13.039   4.419  0.0491 -0.0289  0.0816
    1CHOL    R431509  12.221  13.268   4.471 -0.1012 -0.1319  0.0376
    1CHOL    R531510  12.415  13.229   4.565 -0.0177  0.0734 -0.0407
    1CHOL    C131511  12.192  13.239   4.874  0.1399  0.0847  0.0750
    1CHOL    C231512  12.034  13.518   5.187  0.0320 -0.1065  0.0571
    1CHOL   ROH31513  24.645  21.876   5.585 -0.0624  0.1622 -0.0557
    1CHOL    R131514  24.487  21.923   5.354  0.0394  0.0916 -0.1400
    1CHOL    R231515  24.580  21.875   5.098  0.1303 -0.0459 -0.0794
    1CHOL    R331516  24.355  21.724   5.079  0.1035 -0.0041 -0.1034
    1CHOL    R431517  24.434  21.775   4.802  0.1065  0.0474 -0.0998
    1CHOL    R531518  24.239  21.814   4.891  0.1130  0.0615 -0.0819
    1CHOL    C131519  24.137  21.575   4.611  0.0675  0.1408 -0.1343
    1CHOL    C231520  24.308  21.494   4.296 -0.0888 -0.0168  0.0852
    1CHOL   ROH31521   1.661   5.996   5.980 -0.1092 -0.0223  0.0811
    1CHOL    R131522   1.695   6.032   5.701 -0.0113  0.0307  0.0997
    1CHOL    R231523   1.558   5.882   5.514  0.1300 -0.0036  0.0237
    1CHOL    R331524   1.486   6.127   5.419  0.0620 -0.0218  0.0268
    1CHOL    R431525   1.386   5.937   5.219 -0.2771 -0.0782  0.2388
    1CHOL    R531526   1.515   6.109   5.182 -0.2781 -0.1265 -0.0130
    1CHOL    C131527   1.219   6.198   4.958 -0.5779 -0.1388  0.3669
    1CHOL    C231528   1.067   5.941   4.669  0.2535 -0.1810  0.1248
    1CHOL   ROH31529   1.131  20.722   5.789 -0.0130 -0.1724  0.0237
    1CHOL    R131530   1.041  20.679   5.524 -0.0376 -0.0140  0.0064
    1CHOL    R231531   1.065  20.870   5.325  0.3232 -0.0452  0.0192
    1CHOL    R331532   1.191  20.670   5.192  0.0117 -0.2581  0.0326
    1CHOL    R431533   1.120  20.863   4.984  0.4528 -0.0695  0.0389
    1CHOL    R531534   1.071  20.651   4.986  0.0554  0.0090 -0.0235
    1CHOL    C131535   1.269  20.671   4.660  0.2358 -0.2835  0.0629
    1CHOL    C231536   1.387  20.551   4.358 -0.0905  0.1593 -0.1550
    1CHOL   ROH31537   2.538  16.198   2.735  0.0920 -0.2403 -0.0249
    1CHOL    R131538   2.520  16.375   2.955 -0.0539 -0.2157 -0.0545
    1CHOL    R231539   2.426  16.296   3.203 -0.0286 -0.2415 -0.0470
    1CHOL    R331540   2.663  16.398   3.289 -0.1041 -0.0675 -0.0441
    1CHOL    R431541   2.497  16.380   3.530 -0.0366 -0.3256 -0.0241
    1CHOL    R531542   2.601  16.557   3.457 -0.2110 -0.2005  0.0395
    1CHOL    C131543   2.761  16.525   3.802 -0.1122 -0.2111 -0.0081
    1CHOL    C231544   2.503  16.566   4.082 -0.0177  0.1221 -0.1028
    1CHOL   ROH31545  30.178  17.914   5.973 -0.0142  0.1472 -0.1081
    1CHOL    R131546  30.159  18.071   5.738  0.0108  0.0289 -0.1911
    1CHOL    R231547  30.264  17.991   5.495 -0.0680 -0.1492 -0.1697
    1CHOL    R331548  30.011  18.037   5.407 -0.0657 -0.0886 -0.1446
    1CHOL    R431549  30.177  18.054   5.167 -0.0952 -0.1777 -0.1677
    1CHOL    R531550  30.036  18.204   5.238 -0.0403 -0.1253 -0.1749
    1CHOL    C131551  29.889  18.133   4.893 -0.1089 -0.1374 -0.1430
    1CHOL    C231552  29.595  18.145   4.609  0.3225 -0.0887 -0.0483
    1CHOL   ROH31553  21.780  19.509   2.384 -0.1372  0.4874  0.2122
    1CHOL    R131554  21.812  19.546   2.662 -0.3232  0.3922  0.2488
    1CHOL    R231555  21.617  19.475   2.845 -0.2342 -0.1899  0.1444
    1CHOL    R331556  21.820  19.334   2.958  0.0736  0.2134  0.1152
    1CHOL    R431557  21.654  19.419   3.184 -0.1200 -0.1979  0.1298
    1CHOL    R531558  21.869  19.451   3.161 -0.1822  0.2694  0.1441
    1CHOL    C131559  21.867  19.254   3.487  0.2357  0.1759  0.0940
    1CHOL    C231560  21.650  19.321   3.852 -0.0948  0.4157 -0.1517
    1CHOL   ROH31561   4.801  13.439   2.869 -0.1647  0.3430  0.1095
    1CHOL    R131562   4.802  13.510   3.143 -0.0491  0.1325  0.1654
    1CHOL    R231563   4.710  13.341   3.341  0.0664 -0.0319  0.0770
    1CHOL    R331564   4.956  13.385   3.448  0.1085 -0.0809  0.0024
    1CHOL    R431565   4.796  13.281   3.670  0.1460 -0.0406  0.0554
    1CHOL    R531566   4.911  13.466   3.669  0.1872 -0.0626  0.0146
    1CHOL    C131567   5.077  13.287   3.963  0.2318 -0.0917 -0.0272
    1CHOL    C231568   5.174  13.261   4.326 -0.1833  0.0031 -0.1384
    1CHOL   ROH31569  29.965  14.427   6.013 -0.3750  0.2699 -0.0218
    1CHOL    R131570  29.946  14.521   5.747 -0.2695  0.3331 -0.0078
    1CHOL    R231571  30.151  14.492   5.564 -0.1887  0.3952  0.0714
    1CHOL    R331572  29.957  14.376   5.413 -0.1150  0.4149 -0.0397
    1CHOL    R431573  30.177  14.425   5.226  0.0779  0.2141  0.1250
    1CHOL    R531574  29.970  14.488   5.202  0.1260  0.3049 -0.0881
    1CHOL    C131575  30.010  14.277   4.888  0.3025  0.1273  0.0520
    1CHOL    C231576  29.966  14.147   4.590  0.0901 -0.0815 -0.2053
    1CHOL   ROH31577   7.422  21.610   5.473 -0.1212 -0.2027 -0.0368
    1CHOL    R131578   7.230  21.734   5.306 -0.0690 -0.1106 -0.0262
    1CHOL    R231579   7.287  21.959   5.157 -0.0343 -0.0080  0.1494
    1CHOL    R331580   7.197  21.807   4.950  0.0561  0.1245  0.0075
    1CHOL    R431581   7.109  22.080   4.886  0.0698  0.1682  0.1560
    1CHOL    R531582   6.984  21.902   4.896  0.0715  0.1524 -0.0149
    1CHOL    C131583   6.921  22.007   4.534  0.2152  0.3954  0.0266
    1CHOL    C231584   6.993  22.076   4.202  0.0861  0.3870  0.1854
    1CHOL   ROH31585  13.822  22.632   3.367  0.0514  0.3409  0.1262
    1CHOL    R131586  13.605  22.635   3.548 -0.1107  0.3489 -0.0649
    1CHOL    R231587  13.610  22.499   3.788 -0.4983 -0.0179 -0.2495
    1CHOL    R331588  13.547  22.744   3.890 -0.2745 -0.0798  0.0498
    1CHOL    R431589  13.422  22.552   4.073 -0.3615 -0.1929 -0.1247
    1CHOL    R531590  13.323  22.718   3.972 -0.2678  0.0020  0.0946
    1CHOL    C131591  13.253  22.812   4.335 -0.0718 -0.3530  0.2289
    1CHOL    C231592  13.013  22.946   4.578  0.0659  0.2920 -0.0885
    1CHOL   ROH31593  26.337  18.168   5.706 -0.1933 -0.0454 -0.0064
    1CHOL    R131594  26.444  18.123   5.447 -0.0834 -0.0636  0.0428
    1CHOL    R231595  26.367  17.910   5.289 -0.1002 -0.0066 -0.0173
    1CHOL    R331596  26.316  18.106   5.107  0.0826  0.0349 -0.0279
    1CHOL    R431597  26.409  17.878   4.948 -0.2283 -0.1116 -0.0251
    1CHOL    R531598  26.489  18.081   4.944  0.0167 -0.1987 -0.0725
    1CHOL    C131599  26.386  18.043   4.578 -0.1316 -0.1339 -0.0395
    1CHOL    C231600  26.458  18.079   4.223  0.1158 -0.0815  0.1356
    1CHOL   ROH31601  29.744  11.893   6.009  0.1434  0.0901 -0.0648
    1CHOL    R131602  29.848  11.789   5.767  0.1422  0.0457 -0.0454
    1CHOL    R231603  29.697  11.770   5.537  0.1505  0.0281 -0.0445
    1CHOL    R331604  29.902  11.911   5.429  0.1688 -0.0098 -0.0626
    1CHOL    R431605  29.754  11.807   5.198 -0.0033  0.1942 -0.0541
    1CHOL    R531606  29.967  11.784   5.237  0.0093  0.0648 -0.1716
    1CHOL    C131607  29.980  11.962   4.900 -0.0761  0.2554 -0.0766
    1CHOL    C231608  30.069  11.830   4.464 -0.0788  0.0458 -0.4336
    1CHOL   ROH31609  10.221   1.831   6.207 -0.1100  0.1693  0.3642
    1CHOL    R131610   9.995   1.920   6.061 -0.0227  0.2058  0.2498
    1CHOL    R231611  10.013   2.103   5.856  0.1342  0.0687  0.1406
    1CHOL    R331612   9.884   1.910   5.715  0.0630  0.0543  0.2251
    1CHOL    R431613   9.868   2.148   5.545 -0.0548  0.0510  0.2255
    1CHOL    R531614   9.701   2.025   5.611 -0.0086  0.0403  0.3309
    1CHOL    C131615   9.661   1.993   5.233 -0.2317  0.0271  0.3543
    1CHOL    C231616   9.556   2.036   4.880 -0.1621 -0.3534 -0.1134
    1CHOL   ROH31617  21.886  28.969   3.892 -0.2075  0.1508 -0.0866
    1CHOL    R131618  21.731  29.029   4.122 -0.1392  0.2183 -0.0580
    1CHOL    R231619  21.799  28.940   4.375 -0.1165  0.2130 -0.0664
    1CHOL    R331620  21.783  29.204   4.437 -0.0146  0.2225 -0.0801
    1CHOL    R431621  21.878  29.075   4.683 -0.1968  0.1768 -0.0298
    1CHOL    R531622  21.706  29.207   4.663 -0.1233  0.2636 -0.1165
    1CHOL    C131623  21.909  29.402   4.920 -0.1481  0.1647 -0.0214
    1CHOL    C231624  21.868  29.800   5.019 -0.1000  0.2675 -0.2273
    1CHOL   ROH31625  10.711  12.899   5.637 -0.1322 -0.3500 -0.3487
    1CHOL    R131626  10.914  12.960   5.449 -0.2474 -0.1229 -0.4027
    1CHOL    R231627  10.881  13.151   5.252 -0.2672  0.3314  0.0203
    1CHOL    R331628  11.110  13.252   5.357 -0.0871 -0.0826  0.0455
    1CHOL    R431629  11.131  13.305   5.069 -0.2598  0.4396  0.1203
    1CHOL    R531630  11.278  13.202   5.194 -0.2579  0.0612 -0.1785
    1CHOL    C131631  11.492  13.489   5.062 -0.0864  0.1138  0.2022
    1CHOL    C231632  11.758  13.475   4.801  0.2465 -0.1820  0.4184
    1CHOL   ROH31633  29.088  23.906   3.051  0.0218 -0.0196 -0.0767
    1CHOL    R131634  29.153  23.809   3.308  0.0460  0.0727 -0.0499
    1CHOL    R231635  29.320  23.945   3.481 -0.1165  0.2367 -0.0377
    1CHOL    R331636  29.110  23.920   3.652 -0.1277  0.0783 -0.0691
    1CHOL    R431637  29.347  23.860   3.815 -0.1038  0.0179 -0.0913
    1CHOL    R531638  29.170  23.735   3.792 -0.0859 -0.0126 -0.1897
    1CHOL    C131639  29.166  23.787   4.170 -0.1067 -0.2581 -0.1521
    1CHOL    C231640  29.319  23.432   4.418 -0.1224  0.1769  0.2408
    1CHOL   ROH31641  26.179  18.886   2.208 -0.1498 -0.1091  0.0736
    1CHOL    R131642  26.116  18.909   2.483 -0.1952 -0.1030  0.0628
    1CHOL    R231643  26.028  18.694   2.633 -0.1018 -0.1280  0.0823
    1CHOL    R331644  26.236  18.764   2.794 -0.1570  0.0034  0.0978
    1CHOL    R431645  26.047  18.627   2.971  0.0132 -0.3131  0.0406
    1CHOL    R531646  26.132  18.825   3.001 -0.2007 -0.2345  0.1488
    1CHOL    C131647  26.252  18.653   3.320  0.0281 -0.2975  0.0308
    1CHOL    C231648  26.414  18.768   3.728 -0.0361  0.0327  0.3677
    1CHOL   ROH31649   5.415   6.947   3.625  0.1142  0.0403  0.2003
    1CHOL    R131650   5.473   6.884   3.895  0.0757 -0.0567  0.1863
    1CHOL    R231651   5.277   6.812   4.077  0.0342  0.0065  0.1651
    1CHOL    R331652   5.435   6.594   4.113 -0.0856 -0.0893  0.1174
    1CHOL    R431653   5.276   6.612   4.358  0.1170  0.1150  0.2432
    1CHOL    R531654   5.493   6.601   4.345  0.1034 -0.0387  0.0722
    1CHOL    C131655   5.424   6.291   4.556  0.0527  0.0881  0.2438
    1CHOL    C231656   5.427   6.030   4.801  0.1082 -0.0213  0.0103
    1CHOL   ROH31657   4.464  19.710   5.515 -0.2393  0.0941 -0.1542
    1CHOL    R131658   4.392  19.552   5.292 -0.2754  0.1855 -0.2081
    1CHOL    R231659   4.378  19.653   5.036  0.0305  0.2107 -0.2188
    1CHOL    R331660   4.547  19.448   4.980 -0.1763  0.0025 -0.0998
    1CHOL    R431661   4.439  19.530   4.719  0.2412  0.2654 -0.2011
    1CHOL    R531662   4.438  19.328   4.803 -0.1333  0.2255 -0.2829
    1CHOL    C131663   4.633  19.265   4.482  0.1697  0.1021 -0.0792
    1CHOL    C231664   4.610  19.028   4.243  0.0571 -0.1065  0.2671
    1CHOL   ROH31665  28.929  23.186   6.062 -0.1247  0.0399  0.1143
    1CHOL    R131666  28.968  23.101   5.794 -0.0706  0.0215  0.1293
    1CHOL    R231667  28.760  23.070   5.616 -0.0263  0.0510  0.0814
    1CHOL    R331668  28.908  23.238   5.462  0.0412  0.0146  0.1039
    1CHOL    R431669  28.762  23.071   5.271 -0.0201  0.0785  0.0804
    1CHOL    R531670  28.978  23.103   5.277 -0.0023  0.0005  0.0917
    1CHOL    C131671  28.903  23.229   4.925  0.0468  0.0603  0.1009
    1CHOL    C231672  28.909  23.150   4.553  0.1702  0.2078 -0.3664
    1CHOL   ROH31673  20.041   9.693   5.659 -0.0956 -0.1292  0.1567
    1CHOL    R131674  20.024   9.627   5.384  0.0239 -0.2265  0.1712
    1CHOL    R231675  19.935   9.381   5.295 -0.1415 -0.1851  0.2165
    1CHOL    R331676  19.761   9.532   5.151  0.0865 -0.0844  0.0407
    1CHOL    R431677  19.706   9.256   5.068  0.0421 -0.0498 -0.0474
    1CHOL    R531678  19.751   9.424   4.937  0.2668 -0.0567  0.0175
    1CHOL    C131679  19.409   9.325   4.800  0.3629  0.1235 -0.3661
    1CHOL    C231680  19.173   9.235   4.496  0.0552 -0.1955  0.0317
    1CHOL   ROH31681  11.747   9.093   3.530 -0.2915 -0.0598  0.0017
    1CHOL    R131682  11.749   8.968   3.784 -0.2432 -0.0284  0.0178
    1CHOL    R231683  11.683   9.102   4.017 -0.2463 -0.0108  0.0104
    1CHOL    R331684  11.506   8.898   4.046 -0.2054 -0.0398  0.0488
    1CHOL    R431685  11.517   9.023   4.310 -0.1772 -0.0371  0.0417
    1CHOL    R531686  11.548   8.813   4.265 -0.1506 -0.0299  0.0399
    1CHOL    C131687  11.255   8.785   4.508 -0.0986 -0.0797  0.0960
    1CHOL    C231688  10.836   8.758   4.620  0.1082  0.1636 -0.1042
    1CHOL   ROH31689   0.848  10.466   3.445 -0.1199  0.2045  0.0210
    1CHOL    R131690   0.922  10.551   3.705 -0.1849  0.1185  0.0678
    1CHOL    R231691   0.748  10.545   3.919 -0.1500 -0.2294  0.0878
    1CHOL    R331692   0.947  10.401   4.035  0.0358 -0.0754 -0.0333
    1CHOL    R431693   0.776  10.484   4.258  0.1748 -0.0973  0.0883
    1CHOL    R531694   0.991  10.516   4.241  0.1466  0.0226 -0.1079
    1CHOL    C131695   0.980  10.314   4.565  0.5383  0.1243 -0.0251
    1CHOL    C231696   1.201  10.521   4.874  0.0483  0.0507  0.0544
    1CHOL   ROH31697   0.362   1.247   3.984 -0.0677  0.0211  0.0343
    1CHOL    R131698   0.403   1.153   4.248  0.0181  0.0635  0.0363
    1CHOL    R231699   0.587   1.267   4.420  0.0191  0.1405 -0.0158
    1CHOL    R331700   0.372   1.288   4.585  0.0479  0.0916  0.0280
    1CHOL    R431701   0.603   1.265   4.765  0.0657 -0.1248 -0.0180
    1CHOL    R531702   0.423   1.141   4.767  0.0220 -0.0648 -0.0882
    1CHOL    C131703   0.410   1.283   5.121  0.1198 -0.3252  0.0218
    1CHOL    C231704   0.417   1.208   5.515 -0.1193 -0.0266 -0.0405
    1CHOL   ROH31705  27.779  11.321   6.175 -0.0515 -0.1660 -0.0264
    1CHOL    R131706  27.859  11.322   5.903  0.0856 -0.1356  0.0124
    1CHOL    R231707  28.052  11.150   5.804  0.0129 -0.2495  0.0516
    1CHOL    R331708  27.857  11.086   5.626  0.0481 -0.0463 -0.0619
    1CHOL    R431709  28.108  11.037   5.482  0.0682 -0.1641  0.0316
    1CHOL    R531710  27.941  11.161   5.415  0.1880 -0.0267  0.0052
    1CHOL    C131711  27.957  10.911   5.128  0.1332  0.0764 -0.0866
    1CHOL    C231712  28.277  10.716   5.023  0.1456  0.1281 -0.3739
    1CHOL   ROH31713  17.948   6.644   5.086 -0.2742 -0.0841  0.1027
    1CHOL    R131714  17.939   6.409   4.929 -0.0582 -0.0113 -0.0236
    1CHOL    R231715  17.711   6.254   4.905  0.1150 -0.2809 -0.0034
    1CHOL    R331716  17.752   6.292   4.639 -0.0503 -0.0770 -0.0011
    1CHOL    R431717  17.503   6.139   4.655  0.1543 -0.4069  0.0221
    1CHOL    R531718  17.680   6.088   4.538  0.1698 -0.1131 -0.0847
    1CHOL    C131719  17.420   6.107   4.259  0.0224 -0.2888  0.0391
    1CHOL    C231720  17.356   5.927   4.002 -0.1614  0.0058 -0.0089
    1CHOL   ROH31721  23.099   7.321   3.486  0.2460 -0.3265 -0.0641
    1CHOL    R131722  23.227   7.271   3.733  0.2716 -0.1715 -0.0447
    1CHOL    R231723  23.442   7.420   3.822  0.0584  0.1138  0.0045
    1CHOL    R331724  23.286   7.453   4.042 -0.0282 -0.1104 -0.0203
    1CHOL    R431725  23.531   7.604   4.101 -0.1851  0.1192  0.0806
    1CHOL    R531726  23.440   7.449   4.226 -0.0620 -0.0133  0.0128
    1CHOL    C131727  23.436   7.742   4.470 -0.4081 -0.0881  0.1015
    1CHOL    C231728  23.599   7.822   4.844  0.0635 -0.1680 -0.3604
    1CHOL   ROH31729   1.082  22.172   6.182  0.0889 -0.0715  0.0527
    1CHOL    R131730   0.907  22.276   5.985  0.0293 -0.1833  0.0455
    1CHOL    R231731   0.980  22.479   5.812 -0.1383 -0.0376  0.1384
    1CHOL    R331732   0.902  22.301   5.622  0.1009 -0.0546  0.0539
    1CHOL    R431733   0.943  22.551   5.476 -0.1410  0.0403  0.1554
    1CHOL    R531734   0.764  22.428   5.474 -0.0043 -0.1554  0.0688
    1CHOL    C131735   0.848  22.426   5.103  0.0820  0.0697  0.0859
    1CHOL    C231736   0.969  22.552   4.803 -0.2236 -0.0594 -0.1309
    1CHOL   ROH31737  22.178  22.244   5.645  0.5120  0.1922  0.1562
    1CHOL    R131738  22.326  22.406   5.467  0.3170  0.1825 -0.0183
    1CHOL    R231739  22.391  22.324   5.211  0.1501  0.1134 -0.0403
    1CHOL    R331740  22.272  22.558   5.141  0.0105  0.0448 -0.0348
    1CHOL    R431741  22.400  22.464   4.895 -0.0239  0.0755 -0.0631
    1CHOL    R531742  22.424  22.660   4.987 -0.0908  0.1005 -0.0992
    1CHOL    C131743  22.293  22.765   4.645 -0.2565 -0.0109 -0.0712
    1CHOL    C231744  22.064  23.099   4.371  0.0334  0.1890  0.1599
    1CHOL   ROH31745  30.310  30.319   5.502  0.0240 -0.0010 -0.1193
    1CHOL    R131746   0.167  30.174   5.384  0.0492 -0.0438 -0.0220
    1CHOL    R231747   0.378  30.075   5.531 -0.0268 -0.0670  0.0719
    1CHOL    R331748   0.307  29.840   5.414 -0.0162 -0.0643  0.0600
    1CHOL    R431749   0.600  29.840   5.408 -0.0177  0.0125 -0.0655
    1CHOL    R531750   0.467  29.810   5.238 -0.0831  0.0089 -0.0144
    1CHOL    C131751   0.662  29.482   5.227 -0.0024  0.0609 -0.1568
    1CHOL    C231752   0.760  29.060   5.229  0.0418 -0.0533  0.0907
    1CHOL   ROH31753  17.862  24.527   3.351  0.0747  0.0917 -0.2531
    1CHOL    R131754  17.742  24.400   3.574  0.2247  0.0579 -0.1903
    1CHOL    R231755  17.470  24.415   3.625  0.2785  0.1673  0.0723
    1CHOL    R331756  17.489  24.144   3.628  0.1517  0.1565 -0.0566
    1CHOL    R431757  17.352  24.212   3.878  0.5989  0.1404  0.2064
    1CHOL    R531758  17.531  24.089   3.857  0.5114  0.0575 -0.1390
    1CHOL    C131759  17.299  23.838   4.027  0.6664  0.1146  0.1634
    1CHOL    C231760  17.089  23.998   4.321  0.0923  0.1144  0.3474
    1CHOL   ROH31761   0.912  16.870   2.626 -0.0686 -0.0372  0.0207
    1CHOL    R131762   0.991  17.023   2.851  0.1377 -0.0492 -0.0409
    1CHOL    R231763   0.814  17.100   3.048  0.2388  0.2573 -0.0586
    1CHOL    R331764   0.994  16.980   3.212  0.0942  0.0824 -0.0259
    1CHOL    R431765   0.784  17.077   3.392  0.0020 -0.0184 -0.0944
    1CHOL    R531766   0.998  17.117   3.408 -0.0046 -0.0829  0.0885
    1CHOL    C131767   0.936  16.950   3.746 -0.2716 -0.3431 -0.0846
    1CHOL    C231768   1.105  17.112   4.112  0.2151  0.0353  0.1249
    1CHOL   ROH31769   3.821   8.321   5.871  0.1542 -0.0836 -0.0362
    1CHOL    R131770   3.976   8.356   5.637  0.1814 -0.0815 -0.0165
    1CHOL    R231771   3.972   8.176   5.427 -0.0038  0.0609 -0.1309
    1CHOL    R331772   3.911   8.397   5.281  0.2122  0.2180  0.0078
    1CHOL    R431773   4.077   8.232   5.103 -0.4375 -0.1429 -0.3170
    1CHOL    R531774   4.111   8.441   5.156  0.1119 -0.2049 -0.3370
    1CHOL    C131775   4.082   8.473   4.777 -0.4873 -0.1141 -0.2952
    1CHOL    C231776   4.099   8.335   4.506 -0.0224  0.1497  0.1598
    1CHOL   ROH31777   2.458  16.148   5.747  0.0753  0.0429  0.0781
    1CHOL    R131778   2.481  16.258   5.487  0.0398  0.0099  0.0606
    1CHOL    R231779   2.612  16.127   5.282  0.0439 -0.0004  0.0680
    1CHOL    R331780   2.376  16.165   5.151  0.0277 -0.0533  0.0821
    1CHOL    R431781   2.574  16.119   4.939  0.0367  0.0649  0.0672
    1CHOL    R531782   2.437  16.288   4.955 -0.0218  0.0125  0.1090
    1CHOL    C131783   2.330  16.150   4.616  0.0173  0.0535  0.0802
    1CHOL    C231784   2.256  16.185   4.328 -0.1813 -0.0604  0.2699
    1CHOL   ROH31785  23.612  12.384   5.421 -0.0874  0.0462 -0.0070
    1CHOL    R131786  23.704  12.424   5.157 -0.1642 -0.1099 -0.0581
    1CHOL    R231787  23.963  12.369   5.079 -0.1040  0.1304 -0.0237
    1CHOL    R331788  23.841  12.217   4.890  0.0641 -0.2173  0.1366
    1CHOL    R431789  24.086  12.317   4.760 -0.2599  0.3161 -0.1155
    1CHOL    R531790  23.881  12.335   4.685 -0.3872 -0.1757  0.0582
    1CHOL    C131791  24.042  12.145   4.396 -0.1927  0.0979 -0.0185
    1CHOL    C231792  24.157  12.361   4.141  0.2467 -0.2036  0.0629
    1CHOL   ROH31793   6.212  21.012   5.095  0.1161  0.0665 -0.0332
    1CHOL    R131794   6.217  21.105   4.827 -0.0154  0.0682 -0.0368
    1CHOL    R231795   6.446  21.200   4.707 -0.1088  0.2337 -0.0967
    1CHOL    R331796   6.386  21.013   4.519 -0.0227  0.1854 -0.0749
    1CHOL    R431797   6.492  21.242   4.367 -0.0497  0.1807 -0.0943
    1CHOL    R531798   6.301  21.141   4.334 -0.0154  0.1282 -0.1154
    1CHOL    C131799   6.462  21.091   3.992  0.0655  0.1048 -0.0724
    1CHOL    C231800   6.376  21.495   3.853 -0.0275  0.2624 -0.4507
    1CHOL   ROH31801   4.859  23.148   5.852  0.1176 -0.1252 -0.0597
    1CHOL    R131802   4.937  23.290   5.621  0.1214 -0.1078 -0.0477
    1CHOL    R231803   5.106  23.183   5.429 -0.0690 -0.1865 -0.1747
    1CHOL    R331804   4.903  23.248   5.261 -0.1023  0.0515 -0.0470
    1CHOL    R431805   5.147  23.290   5.103 -0.1515 -0.3358 -0.2350
    1CHOL    R531806   4.987  23.434   5.136  0.0722 -0.0993 -0.1588
    1CHOL    C131807   4.980  23.413   4.755 -0.2308 -0.1995 -0.1503
    1CHOL    C231808   5.059  23.669   4.485 -0.1799 -0.0396 -0.0054
    1CHOL   ROH31809   1.150  23.819   6.650 -0.0898  0.1514  0.0299
    1CHOL    R131810   1.194  23.987   6.426  0.0484  0.0354 -0.0321
    1CHOL    R231811   1.333  23.904   6.202  0.0152 -0.1488  0.0114
    1CHOL    R331812   1.108  23.984   6.073  0.0808 -0.0449 -0.0387
    1CHOL    R431813   1.322  24.011   5.874  0.1201 -0.2024 -0.0101
    1CHOL    R531814   1.181  24.165   5.934  0.2005 -0.1129 -0.0620
    1CHOL    C131815   1.104  24.149   5.561  0.2426 -0.1360 -0.0697
    1CHOL    C231816   1.040  24.067   5.203 -0.1037  0.0817  0.0061
    1CHOL   ROH31817  28.583  11.781   2.752  0.2034 -0.1046 -0.0338
    1CHOL    R131818  28.515  11.767   3.027 -0.0165 -0.0365 -0.0802
    1CHOL    R231819  28.699  11.814   3.228 -0.0746 -0.3452  0.0654
    1CHOL    R331820  28.513  11.995   3.310  0.1394 -0.0615 -0.0615
    1CHOL    R431821  28.679  11.946   3.547 -0.1302 -0.3391  0.0578
    1CHOL    R531822  28.462  11.929   3.535 -0.1433  0.0016 -0.1117
    1CHOL    C131823  28.493  12.192   3.810  0.0380 -0.0691 -0.0658
    1CHOL    C231824  28.447  12.285   4.259 -0.0140 -0.0835  0.0579
    1CHOL   ROH31825  26.978  26.610   5.868  0.1244  0.4207 -0.1945
    1CHOL    R131826  26.782  26.541   5.675  0.2045  0.1252 -0.1769
    1CHOL    R231827  26.739  26.690   5.447 -0.0582  0.0792 -0.1698
    1CHOL    R331828  26.779  26.452   5.322  0.3083  0.1420 -0.1799
    1CHOL    R431829  26.598  26.598   5.145 -0.0077 -0.1834 -0.1143
    1CHOL    R531830  26.567  26.398   5.226  0.3681 -0.2342 -0.1021
    1CHOL    C131831  26.553  26.321   4.853  0.3658 -0.2773 -0.0915
    1CHOL    C231832  26.816  26.357   4.481  0.2207  0.0930  0.0164
    1CHOL   ROH31833  27.995  15.794   2.483  0.2146 -0.1069  0.1005
    1CHOL    R131834  28.020  15.950   2.718  0.1555 -0.0119  0.0458
    1CHOL    R231835  27.853  15.917   2.937  0.0390  0.1370 -0.0103
    1CHOL    R331836  28.089  15.889   3.070 -0.0294  0.1136  0.1037
    1CHOL    R431837  27.895  15.961   3.277 -0.0777  0.3045 -0.0173
    1CHOL    R531838  28.084  16.060   3.237 -0.0249  0.2022  0.0075
    1CHOL    C131839  28.140  15.959   3.600 -0.2098  0.3801  0.0857
    1CHOL    C231840  28.193  16.236   3.849  0.0034  0.2692 -0.0287
    1CHOL   ROH31841  26.647  15.318   2.409  0.0730 -0.0517 -0.0749
    1CHOL    R131842  26.782  15.407   2.642 -0.0449  0.0910 -0.0594
    1CHOL    R231843  27.046  15.346   2.693 -0.1454 -0.1109  0.2413
    1CHOL    R331844  27.070  15.615   2.718  0.0948 -0.0993 -0.0575
    1CHOL    R431845  27.231  15.506   2.937 -0.5210 -0.0172  0.4734
    1CHOL    R531846  27.072  15.653   2.955 -0.4119  0.1957 -0.0849
    1CHOL    C131847  27.362  15.852   3.102 -0.5145  0.0483  0.3281
    1CHOL    C231848  27.377  15.881   3.507  0.2128  0.2567 -0.1981
    1CHOL   ROH31849   0.623  20.454   5.634 -0.0425  0.1969  0.0035
    1CHOL    R131850   0.552  20.437   5.361 -0.0612  0.0878  0.0137
    1CHOL    R231851   0.718  20.525   5.159 -0.1804  0.2482 -0.0213
    1CHOL    R331852   0.683  20.273   5.063  0.0825  0.1947  0.0182
    1CHOL    R431853   0.632  20.448   4.833 -0.4461  0.1247  0.0768
    1CHOL    R531854   0.500  20.292   4.911 -0.1279 -0.0758  0.2301
    1CHOL    C131855   0.548  20.166   4.554 -0.3539  0.0026  0.1709
    1CHOL    C231856   0.565  20.331   4.297  0.1953 -0.4846 -0.2937
    1CHOL   ROH31857   2.962   8.491   6.123  0.0815 -0.1590  0.0351
    1CHOL    R131858   2.939   8.583   5.856 -0.0845 -0.1280  0.0592
    1CHOL    R231859   3.154   8.594   5.683 -0.1483  0.0924 -0.0082
    1CHOL    R331860   2.992   8.445   5.523 -0.0709 -0.0193  0.0156
    1CHOL    R431861   3.154   8.605   5.338 -0.2083  0.1006 -0.0080
    1CHOL    R531862   2.937   8.592   5.342 -0.2018 -0.0520  0.0266
    1CHOL    C131863   3.002   8.472   4.986 -0.1706  0.0008  0.0145
    1CHOL    C231864   3.148   8.607   4.569 -0.1256  0.0241  0.2833
    1CHOL   ROH31865   0.262  19.513   5.743  0.0616  0.0422  0.0735
    1CHOL    R131866   0.389  19.532   5.491  0.1113 -0.0340  0.0921
    1CHOL    R231867   0.481  19.311   5.354 -0.0794 -0.0995  0.0668
    1CHOL    R331868   0.326  19.410   5.154  0.0369  0.0807  0.0637
    1CHOL    R431869   0.500  19.212   5.023 -0.1743 -0.1132  0.0654
    1CHOL    R531870   0.473  19.421   4.965  0.0604 -0.0782  0.0701
    1CHOL    C131871   0.365  19.248   4.642 -0.1202  0.0482  0.0616
    1CHOL    C231872   0.229  19.221   4.287 -0.2017  0.0575  0.0057
    1CHOL   ROH31873   0.769  16.159   5.911 -0.1856 -0.2427  0.1996
    1CHOL    R131874   0.608  16.093   5.688 -0.1469 -0.0453  0.1107
    1CHOL    R231875   0.529  16.280   5.501  0.0977  0.0742  0.1211
    1CHOL    R331876   0.641  16.105   5.326  0.0239  0.0206  0.1276
    1CHOL    R431877   0.466  16.273   5.162 -0.0031  0.0058  0.1414
    1CHOL    R531878   0.465  16.055   5.171 -0.0279  0.0082  0.1904
    1CHOL    C131879   0.534  16.104   4.799 -0.1311 -0.0843  0.1592
    1CHOL    C231880   0.276  16.364   4.607 -0.0624  0.0180  0.1164
    1CHOL   ROH31881   3.822   2.901   6.664 -0.0611 -0.1534 -0.0769
    1CHOL    R131882   3.757   2.801   6.407 -0.0881 -0.0666 -0.1043
    1CHOL    R231883   3.773   2.954   6.179 -0.1022  0.0070 -0.0544
    1CHOL    R331884   3.930   2.750   6.091 -0.1192  0.0294 -0.1378
    1CHOL    R431885   3.873   2.911   5.851 -0.0950  0.1446 -0.0711
    1CHOL    R531886   3.840   2.696   5.875 -0.1181  0.1348 -0.1668
    1CHOL    C131887   4.078   2.694   5.577 -0.1068  0.2457 -0.1590
    1CHOL    C231888   3.964   2.474   5.195  0.0406  0.1469 -0.0121
    1CHOL   ROH31889  27.966   9.544   5.906  0.1513 -0.1917  0.0251
    1CHOL    R131890  28.144   9.453   5.705  0.0466 -0.2813 -0.0286
    1CHOL    R231891  28.073   9.261   5.520 -0.2109 -0.0329 -0.1995
    1CHOL    R331892  28.152   9.450   5.342  0.0795  0.0091 -0.0332
    1CHOL    R431893  28.157   9.199   5.190 -0.2418  0.1180 -0.2357
    1CHOL    R531894  28.320   9.342   5.210 -0.0453 -0.1184 -0.0906
    1CHOL    C131895  28.279   9.341   4.831  0.0128  0.2453 -0.1007
    1CHOL    C231896  28.479   9.413   4.514 -0.0153  0.1117 -0.0768
    1CHOL   ROH31897  24.060  17.099   5.425  0.0006  0.2219 -0.0108
    1CHOL    R131898  24.046  17.224   5.171  0.0733  0.1731 -0.0407
    1CHOL    R231899  24.271  17.284   5.022  0.1233  0.1714  0.0192
    1CHOL    R331900  24.143  17.141   4.830  0.2007  0.1152  0.0114
    1CHOL    R431901  24.322  17.320   4.682  0.0366  0.2667  0.0170
    1CHOL    R531902  24.107  17.297   4.653  0.0553  0.1142  0.0468
    1CHOL    C131903  24.231  17.206   4.304  0.0588  0.2695  0.0085
    1CHOL    C231904  24.097  17.193   3.900 -0.0468 -0.0455  0.0494
    1CHOL   ROH31905  26.755  21.532   5.936  0.0112 -0.0477 -0.0162
    1CHOL    R131906  26.828  21.484   5.666 -0.0090 -0.0292 -0.0242
    1CHOL    R231907  26.659  21.359   5.486 -0.0124 -0.0335 -0.0116
    1CHOL    R331908  26.706  21.582   5.338 -0.0444 -0.0255 -0.0113
    1CHOL    R431909  26.635  21.376   5.142  0.2644 -0.1223 -0.0387
    1CHOL    R531910  26.814  21.501   5.140  0.1839  0.0073  0.0919
    1CHOL    C131911  26.665  21.595   4.802  0.3956 -0.1663 -0.0542
    1CHOL    C231912  26.849  21.510   4.444 -0.1122 -0.0637  0.1223
    1CHOL   ROH31913   5.716  22.850   2.480  0.0286  0.0141  0.0439
    1CHOL    R131914   5.733  22.878   2.761 -0.1504 -0.0419  0.0638
    1CHOL    R231915   5.595  22.714   2.936 -0.0243 -0.2872 -0.0429
    1CHOL    R331916   5.842  22.674   3.041 -0.0130  0.0184  0.0502
    1CHOL    R431917   5.658  22.637   3.267 -0.0152 -0.0400  0.0128
    1CHOL    R531918   5.830  22.771   3.260 -0.1559  0.1210 -0.0126
    1CHOL    C131919   5.927  22.555   3.558  0.0007  0.3906  0.1327
    1CHOL    C231920   5.760  22.252   3.745 -0.0030 -0.1235  0.1269
    1CHOL   ROH31921   0.822  12.509   2.610  0.1188  0.0422  0.0546
    1CHOL    R131922   0.971  12.557   2.846 -0.0047  0.0306  0.1361
    1CHOL    R231923   0.878  12.489   3.098 -0.0662 -0.1351  0.0718
    1CHOL    R331924   1.115  12.356   3.114  0.0077  0.0001  0.1059
    1CHOL    R431925   1.007  12.350   3.386 -0.0738 -0.1508  0.0673
    1CHOL    R531926   1.204  12.420   3.327 -0.0974 -0.0153  0.1535
    1CHOL    C131927   1.305  12.144   3.570 -0.0088 -0.0331  0.0967
    1CHOL    C231928   1.303  12.134   3.912  0.2790  0.3080  0.1339
    1CHOL   ROH31929   4.121  20.731   5.573  0.0534  0.0959  0.1056
    1CHOL    R131930   4.187  20.689   5.301 -0.0490 -0.0466  0.1019
    1CHOL    R231931   3.995  20.640   5.107 -0.1538  0.2029  0.1404
    1CHOL    R331932   4.114  20.851   4.983  0.1404  0.0114  0.0866
    1CHOL    R431933   4.065  20.658   4.769 -0.3605  0.1156  0.0918
    1CHOL    R531934   4.255  20.752   4.818 -0.1500 -0.2275 -0.0282
    1CHOL    C131935   4.217  20.866   4.456 -0.2048 -0.1148  0.0128
    1CHOL    C231936   4.049  20.832   4.118 -0.0446 -0.0911 -0.0876
    1CHOL   ROH31937   0.291  23.108   6.347  0.1329 -0.1708 -0.0394
    1CHOL    R131938   0.379  23.304   6.163 -0.1156 -0.0329 -0.0152
    1CHOL    R231939   0.592  23.262   5.991  0.0188  0.3013  0.0656
    1CHOL    R331940   0.410  23.332   5.801 -0.0281  0.0007 -0.0061
    1CHOL    R431941   0.664  23.305   5.656  0.0838  0.4079  0.0927
    1CHOL    R531942   0.531  23.479   5.655 -0.2038  0.1980  0.0375
    1CHOL    C131943   0.537  23.396   5.283  0.0776  0.1876  0.0411
    1CHOL    C231944   0.602  23.428   4.978 -0.0112 -0.2349 -0.0308
    1CHOL   ROH31945  25.634  21.791   5.861  0.0014 -0.0126  0.0966
    1CHOL    R131946  25.560  21.779   5.588  0.1419 -0.2448  0.0684
    1CHOL    R231947  25.525  22.005   5.433 -0.2604 -0.3615 -0.0025
    1CHOL    R331948  25.705  21.883   5.270  0.0662 -0.0362  0.0966
    1CHOL    R431949  25.573  22.084   5.100 -0.0986 -0.1360  0.0702
    1CHOL    R531950  25.593  21.870   5.058  0.2495 -0.1076 -0.0089
    1CHOL    C131951  25.770  22.015   4.753  0.3023  0.3007  0.2056
    1CHOL    C231952  25.692  22.323   4.559  0.3110 -0.3545 -0.0601
    1CHOL   ROH31953   5.329  14.462   2.835  0.1123  0.0495  0.1002
    1CHOL    R131954   5.378  14.453   3.113  0.0553  0.2896  0.1214
    1CHOL    R231955   5.266  14.632   3.290 -0.3976  0.1397  0.0071
    1CHOL    R331956   5.181  14.407   3.416  0.0569 -0.0019  0.0799
    1CHOL    R431957   5.180  14.613   3.625 -0.7385  0.1761 -0.0753
    1CHOL    R531958   5.280  14.419   3.634 -0.2216  0.4377  0.1905
    1CHOL    C131959   5.050  14.391   3.937 -0.5102  0.0645 -0.0549
    1CHOL    C231960   4.920  14.630   4.226  0.1685  0.1002 -0.0665
    1CHOL   ROH31961  28.617  13.028   6.014 -0.0911 -0.0482 -0.0295
    1CHOL    R131962  28.729  13.040   5.754 -0.0914  0.1161 -0.0230
    1CHOL    R231963  28.776  12.814   5.601  0.1889  0.1865 -0.0483
    1CHOL    R331964  28.625  12.946   5.417  0.0358  0.0295 -0.0377
    1CHOL    R431965  28.776  12.748   5.262  0.1262  0.1011 -0.0319
    1CHOL    R531966  28.767  12.963   5.225 -0.0399  0.0831 -0.0865
    1CHOL    C131967  28.634  12.834   4.892 -0.0541 -0.0961 -0.0126
    1CHOL    C231968  28.680  12.581   4.588 -0.1964 -0.0554 -0.5093
    1CHOL   ROH31969   9.270  15.393   3.082 -0.0452 -0.0534 -0.0982
    1CHOL    R131970   9.164  15.373   3.344 -0.0992 -0.0598 -0.1206
    1CHOL    R231971   9.324  15.357   3.569 -0.1450 -0.2133 -0.0986
    1CHOL    R331972   9.177  15.571   3.650 -0.0326 -0.1472 -0.0668
    1CHOL    R431973   9.306  15.473   3.894 -0.0079 -0.1904 -0.0983
    1CHOL    R531974   9.093  15.508   3.865 -0.0012 -0.1015 -0.0413
    1CHOL    C131975   9.157  15.742   4.159  0.1774 -0.1149 -0.0683
    1CHOL    C231976   9.284  15.804   4.519  0.0965  0.1520 -0.0151
    1CHOL   ROH31977   6.930  18.559   2.210  0.1218  0.0156 -0.0789
    1CHOL    R131978   6.879  18.555   2.488  0.1088 -0.0833 -0.0821
    1CHOL    R231979   7.020  18.393   2.663  0.1012 -0.1462 -0.1312
    1CHOL    R331980   7.066  18.628   2.792  0.0953 -0.1910 -0.0479
    1CHOL    R431981   7.144  18.422   2.984 -0.0187 -0.2567 -0.0749
    1CHOL    R531982   7.003  18.585   3.019 -0.0005 -0.2413 -0.0845
    1CHOL    C131983   7.259  18.658   3.293 -0.0940 -0.3632  0.0362
    1CHOL    C231984   7.516  18.652   3.668 -0.2408  0.2986 -0.0880
    1CHOL   ROH31985   6.519   6.606   3.614  0.0035 -0.2266  0.0801
    1CHOL    R131986   6.594   6.609   3.887 -0.0459  0.0201  0.0914
    1CHOL    R231987   6.427   6.706   4.085 -0.2400 -0.1643  0.0144
    1CHOL    R331988   6.472   6.462   4.196  0.1469 -0.0456  0.1396
    1CHOL    R431989   6.319   6.609   4.399 -0.3383 -0.2521 -0.0452
    1CHOL    R531990   6.510   6.508   4.428 -0.1495  0.1286  0.1641
    1CHOL    C131991   6.298   6.324   4.686 -0.0323 -0.1919  0.0376
    1CHOL    C231992   6.044   6.533   4.813 -0.1046 -0.1765  0.2157
    1CHOL   ROH31993  25.903  30.149   5.953  0.0271  0.1613  0.0281
    1CHOL    R131994  26.035  30.086   5.711 -0.0626  0.2563 -0.0467
    1CHOL    R231995  26.066  30.269   5.506  0.0482  0.4043  0.0980
    1CHOL    R331996  26.329  30.204   5.531  0.0024  0.1742  0.0053
    1CHOL    R431997  26.325   0.075   5.344  0.1482  0.2860  0.1386
    1CHOL    R531998  26.418  30.236   5.311 -0.0175  0.2278  0.0060
    1CHOL    C131999  26.722   0.108   5.273  0.1633  0.0012  0.0753
    1CHOL    C232000  27.055   0.135   5.479 -0.1120 -0.1486  0.0877
    1CHOL   ROH32001   6.770  20.734   2.134  0.2006  0.1672 -0.2591
    1CHOL    R132002   6.841  20.685   2.404  0.1434  0.1651 -0.2443
    1CHOL    R232003   7.104  20.672   2.488  0.1254  0.0770 -0.2050
    1CHOL    R332004   7.023  20.861   2.666  0.1694  0.1218 -0.2322
    1CHOL    R432005   7.249  20.727   2.797  0.0069 -0.0626 -0.1233
    1CHOL    R532006   7.049  20.756   2.880 -0.0202  0.0781 -0.2262
    1CHOL    C132007   7.257  20.936   3.144 -0.0208 -0.1018 -0.1013
    1CHOL    C232008   7.361  21.038   3.485  0.2061  0.1790  0.1645
    1CHOL   ROH32009   7.603  26.578   5.921 -0.0104 -0.2483  0.2837
    1CHOL    R132010   7.774  26.428   5.753 -0.0378 -0.0771  0.0968
    1CHOL    R232011   7.902  26.198   5.838  0.2201 -0.0053 -0.0664
    1CHOL    R332012   7.782  26.090   5.619  0.1049 -0.0399  0.0144
    1CHOL    R432013   8.027  25.932   5.656  0.1479  0.0051 -0.1294
    1CHOL    R532014   7.964  26.034   5.473  0.0200 -0.0200 -0.0946
    1CHOL    C132015   7.988  25.676   5.344 -0.0022 -0.0213 -0.0903
    1CHOL    C232016   8.315  25.431   5.421 -0.2454  0.0150 -0.0701
    1CHOL   ROH32017  27.461  19.641   5.408 -0.1953 -0.0285 -0.0405
    1CHOL    R132018  27.352  19.726   5.161 -0.0401  0.1328 -0.0545
    1CHOL    R232019  27.509  19.821   4.955  0.1303 -0.1046 -0.0361
    1CHOL    R332020  27.382  19.628   4.812 -0.1458  0.0820 -0.0502
    1CHOL    R432021  27.523  19.790   4.611  0.2220 -0.1909 -0.0252
    1CHOL    R532022  27.310  19.740   4.612  0.1283  0.1735 -0.1028
    1CHOL    C132023  27.412  19.590   4.276  0.0164 -0.0661 -0.0321
    1CHOL    C232024  27.295  19.313   4.032  0.2664 -0.1855 -0.1459
    1CHOL   ROH32025   8.292   6.700   3.472  0.0146  0.0169 -0.1899
    1CHOL    R132026   8.267   6.776   3.743  0.0637  0.1848 -0.2314
    1CHOL    R232027   8.273   6.593   3.950 -0.2506  0.2704 -0.1422
    1CHOL    R332028   8.470   6.754   4.044 -0.0319  0.0294 -0.1765
    1CHOL    R432029   8.355   6.632   4.284 -0.3261  0.3725 -0.1348
    1CHOL    R532030   8.382   6.845   4.247  0.0230  0.3109 -0.2733
    1CHOL    C132031   8.588   6.806   4.566 -0.1648  0.2059 -0.1627
    1CHOL    C232032   8.905   6.979   4.720  0.0642  0.0225  0.1274
    1CHOL   ROH32033   4.367   9.371   5.824  0.0789  0.1421 -0.0622
    1CHOL    R132034   4.373   9.257   5.564 -0.0203  0.2458 -0.1095
    1CHOL    R232035   4.299   9.398   5.339  0.1972  0.4382 -0.0567
    1CHOL    R332036   4.545   9.323   5.251  0.1202  0.1618 -0.0532
    1CHOL    R432037   4.374   9.311   5.013  0.0845  0.3039 -0.0491
    1CHOL    R532038   4.501   9.151   5.090 -0.0759  0.1755 -0.0243
    1CHOL    C132039   4.649   9.190   4.740 -0.0534 -0.0335 -0.0413
    1CHOL    C232040   4.404   9.374   4.495 -0.0484 -0.3239  0.0168
    1CHOL   ROH32041   4.630  21.695   5.696  0.0058 -0.2575 -0.1052
    1CHOL    R132042   4.484  21.662   5.456  0.0256 -0.1233 -0.1372
    1CHOL    R232043   4.438  21.870   5.279  0.1720 -0.0566 -0.1040
    1CHOL    R332044   4.549  21.699   5.099  0.1075 -0.0831 -0.1171
    1CHOL    R432045   4.447  21.921   4.938  0.0200 -0.1333 -0.1192
    1CHOL    R532046   4.403  21.709   4.910  0.0275 -0.1389 -0.0552
    1CHOL    C132047   4.556  21.789   4.570 -0.1292 -0.2029 -0.1404
    1CHOL    C232048   4.292  21.835   4.262  0.1771 -0.0000 -0.0698
    1CHOL   ROH32049   1.086  20.046   2.359  0.0055 -0.0915 -0.0055
    1CHOL    R132050   0.892  19.989   2.557 -0.0599 -0.0924 -0.0689
    1CHOL    R232051   0.876  19.743   2.683  0.0286 -0.0304  0.0706
    1CHOL    R332052   0.893  19.894   2.908 -0.1764  0.1177 -0.0106
    1CHOL    R432053   0.865  19.619   3.005  0.0502  0.1490  0.1409
    1CHOL    R532054   0.742  19.789   3.062 -0.1239  0.0685  0.0054
    1CHOL    C132055   0.875  19.689   3.405 -0.1296  0.3925  0.1057
    1CHOL    C232056   0.763  19.550   3.686  0.1668 -0.0225  0.0468
    1CHOL   ROH32057  28.136  17.286   2.651  0.2312  0.1854  0.1908
    1CHOL    R132058  28.100  17.164   2.903  0.1591  0.0688  0.1236
    1CHOL    R232059  28.254  17.229   3.124 -0.0207  0.0914  0.2373
    1CHOL    R332060  28.012  17.271   3.239 -0.1200 -0.1167  0.1145
    1CHOL    R432061  28.186  17.189   3.460 -0.1029  0.1898  0.2335
    1CHOL    R532062  27.995  17.100   3.406  0.0099 -0.0566  0.1978
    1CHOL    C132063  27.920  17.206   3.765 -0.2442  0.0517  0.1162
    1CHOL    C232064  27.988  17.316   4.073  0.0702  0.0727 -0.1765
    1CHOL   ROH32065  12.964  15.853   6.318 -0.0234 -0.0127  0.1035
    1CHOL    R132066  12.939  15.672   6.102 -0.1278  0.0069  0.0983
    1CHOL    R232067  12.822  15.741   5.862 -0.0452  0.0965  0.0824
    1CHOL    R332068  13.057  15.653   5.758 -0.0947 -0.0751  0.1138
    1CHOL    R432069  12.870  15.649   5.532 -0.0264  0.2308  0.0474
    1CHOL    R532070  12.993  15.484   5.602 -0.2094  0.0713 -0.0014
    1CHOL    C132071  13.120  15.513   5.243 -0.0619  0.1479  0.0564
    1CHOL    C232072  12.829  15.234   4.948  0.0632 -0.0029  0.1655
    1CHOL   ROH32073   1.867  11.591   6.204  0.0224  0.0280 -0.0201
    1CHOL    R132074   1.940  11.415   5.995  0.0262  0.0446 -0.0319
    1CHOL    R232075   1.801  11.399   5.757  0.0023  0.0273 -0.0124
    1CHOL    R332076   2.046  11.445   5.648 -0.0185  0.0660 -0.0448
    1CHOL    R432077   1.905  11.283   5.449 -0.0959  0.2054 -0.1152
    1CHOL    R532078   2.100  11.241   5.536 -0.0752  0.1245 -0.1883
    1CHOL    C132079   2.195  11.258   5.167 -0.1726  0.3455 -0.2055
    1CHOL    C232080   2.159  11.220   4.872  0.1042 -0.0168  0.2606
    1CHOL   ROH32081  29.076  15.977   5.975 -0.1570 -0.1667  0.0623
    1CHOL    R132082  28.938  15.928   5.732 -0.1366 -0.0828  0.0330
    1CHOL    R232083  29.013  16.044   5.492 -0.1025 -0.0156  0.0735
    1CHOL    R332084  29.019  15.786   5.407 -0.1135  0.0090 -0.0011
    1CHOL    R432085  29.012  15.945   5.161  0.0690  0.0804  0.0431
    1CHOL    R532086  28.876  15.784   5.215  0.0002  0.0977 -0.0858
    1CHOL    C132087  29.016  15.646   4.888  0.1585  0.1595 -0.0447
    1CHOL    C232088  28.958  15.474   4.621  0.0566 -0.0210  0.0681
    1CHOL   ROH32089   1.256  23.168   2.959  0.0750  0.0693  0.0577
    1CHOL    R132090   1.306  23.245   3.227  0.1244  0.0202  0.0629
    1CHOL    R232091   1.318  23.062   3.435  0.1526 -0.0175  0.0300
    1CHOL    R332092   1.560  23.176   3.479  0.1649 -0.0352  0.0064
    1CHOL    R432093   1.515  23.009   3.714  0.1282  0.0566  0.0614
    1CHOL    R532094   1.565  23.220   3.713  0.1566  0.0480 -0.0101
    1CHOL    C132095   1.858  23.085   3.917  0.1256  0.0829  0.0577
    1CHOL    C232096   2.009  22.892   4.189 -0.2605  0.3458 -0.1327
    1CHOL   ROH32097  28.328   2.279   4.636 -0.0847 -0.0644 -0.1249
    1CHOL    R132098  28.525   2.190   4.819  0.0376 -0.1345 -0.2891
    1CHOL    R232099  28.465   2.119   5.079  0.2795  0.2346 -0.1271
    1CHOL    R332100  28.589   1.888   5.010 -0.1294 -0.0199 -0.0457
    1CHOL    R432101  28.632   1.912   5.299  0.4224  0.3369 -0.1371
    1CHOL    R532102  28.785   1.882   5.148  0.1214 -0.0619 -0.3891
    1CHOL    C132103  28.846   1.573   5.363  0.1216  0.1575 -0.0665
    1CHOL    C232104  28.992   1.462   5.728  0.1055 -0.3679 -0.0949
    1CHOL   ROH32105   4.394   2.693   5.175 -0.2037 -0.1467  0.1985
    1CHOL    R132106   4.414   2.974   5.202 -0.1159 -0.1700  0.3986
    1CHOL    R232107   4.329   3.148   5.005  0.3019 -0.0119  0.3451
    1CHOL    R332108   4.185   3.256   5.209 -0.0031 -0.0705  0.1662
    1CHOL    R432109   4.271   3.486   5.050  0.1428 -0.0331  0.3030
    1CHOL    R532110   4.301   3.458   5.264 -0.1344 -0.0421  0.3415
    1CHOL    C132111   4.102   3.784   5.267 -0.2362 -0.1005  0.1105
    1CHOL    C232112   3.925   4.093   5.511  0.0951  0.1764 -0.0392
    1CHOL   ROH32113  28.657  11.813   5.991  0.0449 -0.1824  0.1275
    1CHOL    R132114  28.832  11.756   5.775 -0.0329 -0.2009  0.0698
    1CHOL    R232115  28.818  11.521   5.630 -0.1577 -0.1639  0.0249
    1CHOL    R332116  28.799  11.691   5.419 -0.1498 -0.1133  0.0637
    1CHOL    R432117  28.821  11.426   5.298 -0.1136 -0.0837  0.0013
    1CHOL    R532118  28.946  11.599   5.254 -0.1229 -0.0611  0.0566
    1CHOL    C132119  28.805  11.530   4.906 -0.0802  0.0105  0.0239
    1CHOL    C232120  29.092  11.441   4.718  0.2738 -0.0206  0.2099
    1CHOL   ROH32121  28.743  14.002   6.026 -0.1609 -0.2114  0.1606
    1CHOL    R132122  28.619  13.964   5.774 -0.0878 -0.1396  0.1135
    1CHOL    R232123  28.652  14.140   5.564  0.1086 -0.1693  0.1211
    1CHOL    R332124  28.727  13.915   5.430  0.0138 -0.2229  0.1560
    1CHOL    R432125  28.636  14.098   5.221  0.2159 -0.1596  0.1142
    1CHOL    R532126  28.567  13.894   5.254  0.0663 -0.1172  0.0920
    1CHOL    C132127  28.697  13.864   4.896  0.1892 -0.2042  0.1429
    1CHOL    C232128  28.722  13.706   4.601 -0.4348 -0.1287  0.0687
    1CHOL   ROH32129  27.855  19.014   2.206 -0.2260  0.0362  0.0543
    1CHOL    R132130  27.800  19.117   2.464 -0.0986 -0.0422  0.1148
    1CHOL    R232131  27.585  19.033   2.615 -0.1303  0.0411  0.1220
    1CHOL    R332132  27.776  18.985   2.802 -0.1219 -0.1835  0.0578
    1CHOL    R432133  27.529  19.022   2.956 -0.0247  0.1280  0.1421
    1CHOL    R532134  27.717  19.128   2.985  0.1171 -0.1006  0.0716
    1CHOL    C132135  27.675  18.970   3.330  0.0448 -0.0323  0.0935
    1CHOL    C232136  27.639  19.039   3.790  0.2336 -0.2362  0.0827
    1CHOL   ROH32137  14.080  27.653   3.346 -0.1164  0.0824  0.0130
    1CHOL    R132138  14.151  27.555   3.602  0.0137  0.0445 -0.0373
    1CHOL    R232139  13.970  27.534   3.809  0.1264  0.0394  0.0584
    1CHOL    R332140  14.055  27.276   3.815  0.1021  0.0293 -0.0150
    1CHOL    R432141  13.956  27.329   4.087  0.1396 -0.0189  0.0160
    1CHOL    R532142  14.153  27.251   4.033  0.1287 -0.0269 -0.0299
    1CHOL    C132143  14.029  26.966   4.254  0.1245 -0.0623 -0.0776
    1CHOL    C232144  13.962  26.894   4.494  0.0721  0.1191  0.0553
    1CHOL   ROH32145   6.453  19.416   2.134 -0.2138  0.1849 -0.2776
    1CHOL    R132146   6.244  19.398   2.325 -0.0764  0.0369 -0.1381
    1CHOL    R232147   6.288  19.324   2.587  0.1399  0.0004 -0.1844
    1CHOL    R332148   6.160  19.558   2.641  0.0556 -0.0766 -0.0439
    1CHOL    R432149   6.224  19.445   2.904  0.3215 -0.0948 -0.1099
    1CHOL    R532150   6.028  19.509   2.835  0.2300 -0.1855  0.0524
    1CHOL    C132151   6.067  19.735   3.140  0.3483 -0.2225  0.0654
    1CHOL    C232152   5.781  19.738   3.463 -0.0149 -0.4669 -0.1494
    1CHOL   ROH32153  29.005  25.638   3.552  0.2293  0.0252  0.0265
    1CHOL    R132154  28.970  25.710   3.823  0.2100 -0.1041  0.0590
    1CHOL    R232155  28.748  25.846   3.912  0.2496 -0.0591  0.0905
    1CHOL    R332156  28.729  25.638   4.086  0.1320 -0.1454 -0.0234
    1CHOL    R432157  28.668  25.876   4.247  0.3663 -0.1891  0.1311
    1CHOL    R532158  28.818  25.724   4.292  0.2579 -0.3354  0.0030
    1CHOL    C132159  28.603  25.698   4.606  0.3238 -0.3459  0.0478
    1CHOL    C232160  28.434  25.680   4.987  0.0868 -0.1625  0.3043
    1CHOL   ROH32161   6.374  12.506   3.059 -0.4571  0.3273  0.0740
    1CHOL    R132162   6.515  12.513   3.304 -0.2424  0.4452 -0.0511
    1CHOL    R232163   6.441  12.676   3.514 -0.3309  0.2198  0.0940
    1CHOL    R332164   6.443  12.443   3.654  0.1918  0.1473 -0.0117
    1CHOL    R432165   6.503  12.650   3.853 -0.2188  0.2016  0.0725
    1CHOL    R532166   6.620  12.470   3.812  0.1681  0.4605 -0.0293
    1CHOL    C132167   6.541  12.415   4.182  0.3371  0.1229 -0.0393
    1CHOL    C232168   6.649  12.645   4.467 -0.2262  0.0203 -0.0726
    1CHOL   ROH32169  25.378  17.955   2.465 -0.1121 -0.0218 -0.1303
    1CHOL    R132170  25.455  17.976   2.737 -0.1091  0.1356 -0.1423
    1CHOL    R232171  25.363  18.177   2.902 -0.2198  0.1501 -0.2205
    1CHOL    R332172  25.287  17.969   3.060 -0.0875  0.1695 -0.1302
    1CHOL    R432173  25.308  18.199   3.243 -0.3301  0.2885 -0.2462
    1CHOL    R532174  25.407  18.005   3.266 -0.1718  0.3810 -0.1154
    1CHOL    C132175  25.206  18.016   3.590 -0.2704  0.3875 -0.1764
    1CHOL    C232176  25.121  18.313   3.863 -0.3633  0.1290 -0.1786
    1CHOL   ROH32177  29.917  28.316   4.313 -0.1353 -0.3768 -0.1243
    1CHOL    R132178  29.904  28.304   4.596 -0.0297 -0.1687 -0.1082
    1CHOL    R232179  29.675  28.228   4.731  0.0445 -0.1527  0.0328
    1CHOL    R332180  29.843  28.048   4.847  0.1537 -0.0041  0.1075
    1CHOL    R432181  29.587  28.010   4.984  0.1830 -0.0962  0.1306
    1CHOL    R532182  29.779  28.048   5.078  0.1622  0.0579  0.1082
    1CHOL    C132183  29.692  27.714   5.241  0.3662  0.0763  0.2577
    1CHOL    C232184  29.783  27.339   5.371  0.0757 -0.0618  0.1333
    1CHOL   ROH32185  15.018  27.912   4.967  0.0780 -0.2173  0.0982
    1CHOL    R132186  15.270  28.002   4.872  0.0307 -0.1383  0.0477
    1CHOL    R232187  15.485  28.042   5.040  0.0655 -0.1269 -0.0056
    1CHOL    R332188  15.610  27.874   4.867  0.0608 -0.0570 -0.0784
    1CHOL    R432189  15.828  28.000   5.018  0.0699 -0.0598 -0.0775
    1CHOL    R532190  15.808  27.993   4.801  0.0299 -0.0004 -0.0800
    1CHOL    C132191  16.145  27.819   4.843  0.0681  0.0449 -0.1876
    1CHOL    C232192  16.337  27.565   4.687  0.2177 -0.0268 -0.0794
    1CHOL   ROH32193  26.837  11.154   5.848 -0.1501 -0.1134  0.1161
    1CHOL    R132194  26.863  11.350   5.646 -0.2204 -0.0666  0.1516
    1CHOL    R232195  27.001  11.304   5.411 -0.1107  0.0608  0.1892
    1CHOL    R332196  26.768  11.384   5.296 -0.1305 -0.0859  0.1251
    1CHOL    R432197  26.961  11.378   5.075 -0.0824 -0.0302  0.1656
    1CHOL    R532198  26.835  11.546   5.133 -0.1829 -0.0846  0.1050
    1CHOL    C132199  26.719  11.496   4.773 -0.0841 -0.2210  0.0916
    1CHOL    C232200  26.770  11.618   4.378  0.2249 -0.2089  0.1683
    1CHOL   ROH32201   1.421   9.034   3.142 -0.2152 -0.1352 -0.0811
    1CHOL    R132202   1.361   9.032   3.418 -0.2766 -0.0064 -0.0942
    1CHOL    R232203   1.283   8.803   3.552 -0.1543  0.0273  0.0218
    1CHOL    R332204   1.491   8.866   3.716 -0.2364  0.2600  0.0421
    1CHOL    R432205   1.327   8.680   3.872  0.0359 -0.0786 -0.0417
    1CHOL    R532206   1.393   8.878   3.934 -0.2570  0.0017  0.0567
    1CHOL    C132207   1.547   8.668   4.212  0.0698  0.0784 -0.0597
    1CHOL    C232208   1.609   8.792   4.620 -0.0739 -0.0388 -0.0994
    1CHOL   ROH32209   9.577  26.485   5.553  0.0362 -0.1860 -0.1071
    1CHOL    R132210   9.769  26.496   5.346  0.1327 -0.0726 -0.0120
    1CHOL    R232211   9.706  26.570   5.088  0.2039 -0.1696 -0.0550
    1CHOL    R332212   9.905  26.751   5.124  0.0466 -0.0052  0.0108
    1CHOL    R432213   9.868  26.739   4.833  0.3702 -0.2889 -0.0307
    1CHOL    R532214  10.055  26.712   4.941  0.2757 -0.0729  0.2051
    1CHOL    C132215  10.149  27.008   4.720  0.3195 -0.2043  0.0453
    1CHOL    C232216  10.366  27.129   4.325  0.1648 -0.1624 -0.1046
    1CHOL   ROH32217  18.117  15.558   5.860 -0.1477  0.1904 -0.0925
    1CHOL    R132218  17.954  15.734   5.709 -0.0496  0.2608 -0.1162
    1CHOL    R232219  18.042  15.982   5.624  0.0419  0.2557 -0.0320
    1CHOL    R332220  17.966  15.889   5.380  0.1080  0.3265 -0.0809
    1CHOL    R432221  17.829  16.147   5.407  0.0415  0.2855 -0.0100
    1CHOL    R532222  17.737  15.955   5.360  0.0948  0.2795 -0.0972
    1CHOL    C132223  17.634  16.155   5.052  0.1032  0.3693 -0.0430
    1CHOL    C232224  17.348  16.063   4.708  0.2493  0.0130 -0.4332
    1CHOL   ROH32225   5.860  19.107   5.400 -0.1095  0.0855 -0.1328
    1CHOL    R132226   5.908  19.176   5.130  0.0704  0.0929 -0.1009
    1CHOL    R232227   6.153  19.139   5.007  0.1114 -0.0492  0.0142
    1CHOL    R332228   6.004  19.002   4.825  0.1095  0.0705 -0.0745
    1CHOL    R432229   6.245  19.083   4.679  0.1821  0.0076  0.0243
    1CHOL    R532230   6.038  19.121   4.620  0.2205  0.1137 -0.0279
    1CHOL    C132231   6.159  18.923   4.316  0.2214  0.1534 -0.0530
    1CHOL    C232232   6.099  18.734   3.994 -0.0623 -0.2722  0.0061
    1CHOL   ROH32233  13.321  26.052   4.783  0.1549 -0.0226 -0.0857
    1CHOL    R132234  13.224  25.802   4.693  0.1442 -0.0628  0.0373
    1CHOL    R232235  13.265  25.568   4.833  0.0420  0.0208  0.2069
    1CHOL    R332236  12.995  25.547   4.817  0.0443  0.0600  0.1091
    1CHOL    R432237  13.084  25.282   4.905 -0.0251  0.0599  0.1942
    1CHOL    R532238  12.957  25.326   4.733  0.0445  0.0480  0.1358
    1CHOL    C132239  12.725  25.097   4.931 -0.0619  0.1193  0.0950
    1CHOL    C232240  12.630  24.736   4.822 -0.0448 -0.0016  0.0580
    1CHOL   ROH32241   6.427  26.527   3.395  0.0257 -0.0963  0.0539
    1CHOL    R132242   6.508  26.371   3.617  0.1544 -0.0147  0.0639
    1CHOL    R232243   6.458  26.100   3.635 -0.0278  0.0358  0.2880
    1CHOL    R332244   6.727  26.085   3.674  0.0088 -0.1413  0.0053
    1CHOL    R432245   6.624  25.823   3.756 -0.1297  0.0101  0.3719
    1CHOL    R532246   6.750  25.957   3.874  0.1153  0.0302  0.1110
    1CHOL    C132247   6.974  25.647   3.864 -0.1546 -0.1712  0.1554
    1CHOL    C232248   7.071  25.513   4.239  0.3768 -0.0512 -0.0985
    1CHOL   ROH32249  26.348  25.506   4.261  0.0588  0.5454  0.1598
    1CHOL    R132250  26.317  25.362   4.502  0.0234  0.3299  0.0287
    1CHOL    R232251  26.318  25.484   4.749 -0.0767  0.1183  0.1347
    1CHOL    R332252  26.080  25.356   4.778 -0.0550  0.0347 -0.0403
    1CHOL    R432253  26.159  25.430   5.051 -0.3698  0.2351  0.0053
    1CHOL    R532254  26.104  25.231   4.981 -0.2104  0.1666  0.0647
    1CHOL    C132255  25.842  25.278   5.254 -0.5199  0.2244 -0.2344
    1CHOL    C232256  25.592  24.992   5.530  0.0634  0.2570 -0.1707
    1CHOL   ROH32257  27.265   1.261   6.682 -0.2239  0.2700  0.0149
    1CHOL    R132258  27.280   1.337   6.410 -0.2829  0.2470  0.0036
    1CHOL    R232259  27.419   1.189   6.222  0.0178  0.4358  0.0574
    1CHOL    R332260  27.182   1.193   6.090  0.0309  0.0140  0.0098
    1CHOL    R432261  27.379   1.116   5.887  0.1917  0.3547  0.0540
    1CHOL    R532262  27.236   1.280   5.874 -0.0916  0.0998  0.0216
    1CHOL    C132263  27.132   1.077   5.568  0.3051 -0.0886  0.0073
    1CHOL    C232264  26.862   1.035   5.317  0.0015 -0.0639  0.3951
    1CHOL   ROH32265  29.875  15.422   6.102  0.0808 -0.1240  0.1169
    1CHOL    R132266  29.937  15.366   5.831 -0.0045 -0.1230  0.0968
    1CHOL    R232267  29.743  15.310   5.642 -0.0744  0.0147  0.1263
    1CHOL    R332268  29.863  15.513   5.507  0.0164 -0.0351  0.1320
    1CHOL    R432269  29.853  15.291   5.315  0.0345 -0.0636  0.1672
    1CHOL    R532270  30.030  15.405   5.374  0.0385 -0.0929  0.2076
    1CHOL    C132271  30.030  15.470   4.998  0.1833 -0.1559  0.1962
    1CHOL    C232272  29.804  15.413   4.751  0.1068  0.1268  0.1621
    1CHOL   ROH32273  27.877  18.545   2.239 -0.2197  0.0971 -0.0005
    1CHOL    R132274  27.836  18.642   2.502 -0.2962  0.0236  0.0155
    1CHOL    R232275  27.622  18.565   2.658 -0.1942 -0.2327  0.0341
    1CHOL    R332276  27.816  18.500   2.837 -0.0980 -0.0388  0.0024
    1CHOL    R432277  27.574  18.534   2.999 -0.0960 -0.2295  0.0481
    1CHOL    R532278  27.766  18.633   3.030 -0.1749 -0.0559 -0.0051
    1CHOL    C132279  27.730  18.455   3.365  0.0513 -0.0455  0.0265
    1CHOL    C232280  27.852  18.595   3.649  0.0771 -0.0639 -0.3270
    1CHOL   ROH32281  27.037  19.317   2.060  0.0865 -0.0516  0.0080
    1CHOL    R132282  27.012  19.228   2.328  0.2285 -0.0945  0.0088
    1CHOL    R232283  27.213  19.259   2.515  0.2508  0.0680 -0.0344
    1CHOL    R332284  27.016  19.380   2.659  0.1760 -0.1121  0.0159
    1CHOL    R432285  27.215  19.300   2.858  0.3827  0.2417 -0.0550
    1CHOL    R532286  27.002  19.252   2.861  0.4471 -0.0272  0.0865
    1CHOL    C132287  27.031  19.437   3.193  0.3896  0.1737 -0.0197
    1CHOL    C232288  26.874  19.485   3.518  0.2669  0.3263  0.0123
    1CHOL   ROH32289   1.276  24.915   4.934 -0.0230 -0.1544 -0.2631
    1CHOL    R132290   1.471  25.097   4.838  0.0717 -0.1845 -0.1312
    1CHOL    R232291   1.451  25.369   4.875 -0.0534 -0.1575 -0.3761
    1CHOL    R332292   1.699  25.341   4.982 -0.1932 -0.0130  0.0062
    1CHOL    R432293   1.699  25.610   4.864 -0.0325 -0.1797 -0.3943
    1CHOL    R532294   1.844  25.451   4.825  0.0216 -0.2465  0.0331
    1CHOL    C132295   2.076  25.723   4.958 -0.1516 -0.0570 -0.0459
    1CHOL    C232296   2.378  25.655   4.766  0.2811 -0.4248 -0.3870
    1CHOL   ROH32297  26.354  17.225   2.548  0.2087 -0.2275  0.0251
    1CHOL    R132298  26.337  17.332   2.810  0.1505 -0.1414 -0.0124
    1CHOL    R232299  26.096  17.383   2.935  0.1195 -0.0985 -0.0813
    1CHOL    R332300  26.200  17.226   3.130  0.0771 -0.0383 -0.0106
    1CHOL    R432301  26.043  17.427   3.273  0.2466  0.1441 -0.0906
    1CHOL    R532302  26.252  17.377   3.308  0.2221  0.0381 -0.1204
    1CHOL    C132303  26.109  17.304   3.654  0.2809  0.3418 -0.0297
    1CHOL    C232304  25.994  17.389   3.998 -0.2551 -0.0651  0.3387
    1CHOL   ROH32305   5.741  13.438   2.473  0.1172 -0.1238 -0.0827
    1CHOL    R132306   5.730  13.341   2.738  0.0646 -0.1975 -0.1113
    1CHOL    R232307   5.951  13.331   2.903  0.0156 -0.1612 -0.0399
    1CHOL    R332308   5.792  13.473   3.072 -0.0914 -0.2609 -0.0562
    1CHOL    R432309   5.996  13.353   3.245 -0.0535 -0.1566 -0.0315
    1CHOL    R532310   5.780  13.339   3.269 -0.0485 -0.2792 -0.0670
    1CHOL    C132311   5.872  13.500   3.602 -0.1943 -0.2474 -0.0418
    1CHOL    C232312   5.858  13.279   3.763  0.3463  0.1458  0.0806
    1CHOL   ROH32313  28.867  17.935   2.247 -0.1176 -0.0888  0.0386
    1CHOL    R132314  28.837  18.060   2.499 -0.1470 -0.0633  0.0212
    1CHOL    R232315  28.665  17.965   2.693 -0.0317 -0.1475  0.0739
    1CHOL    R332316  28.889  17.969   2.848 -0.0017  0.0409  0.0305
    1CHOL    R432317  28.670  18.033   3.032 -0.0819 -0.4343  0.1356
    1CHOL    R532318  28.852  18.149   3.001 -0.2449 -0.1354  0.1964
    1CHOL    C132319  28.883  18.076   3.374 -0.0831 -0.4245  0.1306
    1CHOL    C232320  28.664  18.024   3.759  0.0618 -0.0480  0.5458
    1CHOL   ROH32321   0.324   9.083   3.261 -0.0533  0.1256 -0.0011
    1CHOL    R132322   0.367   9.183   3.523  0.0999  0.0046  0.0211
    1CHOL    R232323   0.227   9.089   3.742  0.0096  0.1153  0.0112
    1CHOL    R332324   0.476   9.047   3.842 -0.0261 -0.2171 -0.0272
    1CHOL    R432325   0.302   9.048   4.077  0.0334  0.2960  0.0293
    1CHOL    R532326   0.480   9.170   4.047  0.2385 -0.0277 -0.1381
    1CHOL    C132327   0.580   8.984   4.365  0.0137  0.0893  0.0038
    1CHOL    C232328   0.725   9.012   4.706 -0.2889 -0.2664  0.0409
    1CHOL   ROH32329   8.593  15.538   5.896 -0.1707 -0.0987  0.0629
    1CHOL    R132330   8.453  15.511   5.652 -0.0811 -0.2099  0.0237
    1CHOL    R232331   8.483  15.689   5.443 -0.1850 -0.1709  0.0466
    1CHOL    R332332   8.540  15.465   5.301  0.0542 -0.1113  0.0420
    1CHOL    R432333   8.587  15.685   5.113 -0.4567 -0.0519 -0.0449
    1CHOL    R532334   8.460  15.511   5.081 -0.2159 -0.2708  0.0978
    1CHOL    C132335   8.702  15.471   4.789 -0.3904  0.0732 -0.1027
    1CHOL    C232336   8.903  15.508   4.605  0.3603 -0.1045 -0.0779
    1CHOL   ROH32337  24.737  17.299   2.584  0.1189  0.1122 -0.1210
    1CHOL    R132338  24.615  17.269   2.838  0.1232 -0.0567 -0.1373
    1CHOL    R232339  24.761  17.245   3.071  0.1272  0.0614 -0.1272
    1CHOL    R332340  24.608  17.455   3.151 -0.1049 -0.1112 -0.1081
    1CHOL    R432341  24.648  17.295   3.394  0.2758  0.0272 -0.0694
    1CHOL    R532342  24.457  17.360   3.311  0.1266 -0.2596  0.0302
    1CHOL    C132343  24.439  17.521   3.657  0.1445 -0.1549 -0.0176
    1CHOL    C232344  24.523  17.565   4.049 -0.0313  0.2079  0.0265
    1CHOL   ROH32345  20.236  28.470   6.438  0.1187 -0.0171 -0.0362
    1CHOL    R132346  20.225  28.305   6.208  0.0391  0.0386 -0.0730
    1CHOL    R232347  20.291  28.396   5.957  0.1032  0.0570 -0.0485
    1CHOL    R332348  20.461  28.184   5.958 -0.0148 -0.0386 -0.0875
    1CHOL    R432349  20.357  28.195   5.683  0.0445  0.1185 -0.1079
    1CHOL    R532350  20.354  28.022   5.817 -0.0791  0.0710 -0.1676
    1CHOL    C132351  20.554  27.879   5.525 -0.1005  0.0645 -0.1792
    1CHOL    C232352  20.661  27.671   5.259 -0.1574  0.3416 -0.2174
    1CHOL   ROH32353  25.395  13.392   2.702 -0.0186 -0.0031 -0.0384
    1CHOL    R132354  25.563  13.454   2.921  0.0025  0.0196 -0.0608
    1CHOL    R232355  25.507  13.658   3.099 -0.0106 -0.0003 -0.0427
    1CHOL    R332356  25.534  13.460   3.284  0.0562 -0.0034 -0.0558
    1CHOL    R432357  25.571  13.709   3.435 -0.0896  0.0044 -0.0285
    1CHOL    R532358  25.707  13.539   3.430 -0.0047  0.0703 -0.0216
    1CHOL    C132359  25.633  13.553   3.804 -0.0727  0.0041 -0.0324
    1CHOL    C232360  25.713  13.728   4.178  0.1399  0.2787  0.1976
    1CHOL   ROH32361   3.399  23.859   3.276 -0.0820 -0.2682  0.0154
    1CHOL    R132362   3.429  23.942   3.545 -0.0525 -0.2296  0.0007
    1CHOL    R232363   3.306  23.813   3.756 -0.1617 -0.1029  0.0189
    1CHOL    R332364   3.559  23.799   3.854 -0.1787 -0.2522  0.0434
    1CHOL    R432365   3.393  23.868   4.086 -0.1342  0.0504 -0.0134
    1CHOL    R532366   3.569  23.975   4.016 -0.0375 -0.1486 -0.0772
    1CHOL    C132367   3.681  23.887   4.370 -0.1343 -0.0002 -0.0093
    1CHOL    C232368   3.766  24.084   4.749  0.0661 -0.1182  0.0102
    1CHOL   ROH32369  25.498  11.622   5.168 -0.0827 -0.0318 -0.0332
    1CHOL    R132370  25.685  11.470   5.019 -0.0474  0.0773 -0.1015
    1CHOL    R232371  25.723  11.199   5.059  0.1486  0.1031 -0.0926
    1CHOL    R332372  25.673  11.185   4.792  0.0384  0.0492 -0.0700
    1CHOL    R432373  25.920  11.030   4.831 -0.0052 -0.0283 -0.1301
    1CHOL    R532374  25.890  11.195   4.691  0.0000 -0.0567 -0.1611
    1CHOL    C132375  25.988  10.919   4.447 -0.1985 -0.1555 -0.1306
    1CHOL    C232376  25.968  10.701   4.140 -0.1638 -0.0963  0.0524
    1CHOL   ROH32377  11.207   2.389   5.355  0.1777 -0.1256  0.0325
    1CHOL    R132378  11.135   2.270   5.109  0.0410  0.0365 -0.0094
    1CHOL    R232379  11.122   2.414   4.873  0.2120  0.1333  0.0302
    1CHOL    R332380  11.292   2.220   4.784 -0.0075 -0.0383 -0.0192
    1CHOL    R432381  11.210   2.365   4.542 -0.0534 -0.0741 -0.0116
    1CHOL    R532382  11.197   2.150   4.575 -0.2049 -0.0451  0.0769
    1CHOL    C132383  11.419   2.155   4.266 -0.4141 -0.3560 -0.0823
    1CHOL    C232384  11.328   2.006   3.825  0.2420  0.1131 -0.0745
    1CHOL   ROH32385   9.286  30.352   3.703 -0.0485  0.1820  0.2282
    1CHOL    R132386   9.312  30.182   3.928 -0.0350  0.1273  0.1856
    1CHOL    R232387   9.528  30.193   4.100 -0.0822  0.1657  0.2410
    1CHOL    R332388   9.335  30.222   4.289 -0.1397  0.0324  0.2040
    1CHOL    R432389   9.567  30.120   4.436 -0.1066  0.1472  0.2398
    1CHOL    R532390   9.366  30.036   4.436 -0.0609  0.0306  0.1876
    1CHOL    C132391   9.408  30.105   4.808 -0.1748  0.0115  0.2044
    1CHOL    C232392   9.611  30.310   4.936  0.1108  0.1015  0.2621
    1CHOL   ROH32393  15.137  20.060   5.249 -0.0627 -0.0951  0.0211
    1CHOL    R132394  15.170  20.155   4.984  0.1570 -0.0265  0.0709
    1CHOL    R232395  14.991  20.330   4.865  0.1012 -0.2124 -0.1264
    1CHOL    R332396  15.214  20.479   4.824 -0.0085  0.0466  0.1698
    1CHOL    R432397  15.037  20.550   4.602  0.2571 -0.2856 -0.1613
    1CHOL    R532398  15.242  20.480   4.586  0.3792 -0.0397  0.2085
    1CHOL    C132399  15.273  20.817   4.410  0.2449 -0.0850  0.0965
    1CHOL    C232400  15.522  21.014   4.204 -0.2213  0.1100 -0.0356
    1CHOL   ROH32401  24.786  28.681   4.033  0.1995  0.1432  0.1503
    1CHOL    R132402  24.514  28.709   4.104  0.1563  0.1245 -0.0045
    1CHOL    R232403  24.399  28.568   4.312  0.0367  0.0855 -0.0947
    1CHOL    R332404  24.326  28.815   4.397 -0.0180  0.0693 -0.0949
    1CHOL    R432405  24.149  28.631   4.542 -0.1840  0.0497 -0.3206
    1CHOL    R532406  24.088  28.802   4.421 -0.0444  0.0911 -0.3326
    1CHOL    C132407  23.935  28.900   4.756 -0.3639  0.0141 -0.4524
    1CHOL    C232408  23.718  29.098   4.929 -0.1204  0.2149 -0.1996
    1CHOL   ROH32409   1.453  27.087   5.043 -0.0417 -0.1477 -0.2127
    1CHOL    R132410   1.203  27.044   4.918 -0.0771 -0.1268 -0.1486
    1CHOL    R232411   0.978  26.968   5.058 -0.0822  0.0360 -0.0695
    1CHOL    R332412   0.869  27.187   4.938 -0.0220  0.0084 -0.1771
    1CHOL    R432413   0.646  27.064   5.084 -0.0262  0.2163 -0.0010
    1CHOL    R532414   0.650  27.116   4.873 -0.0843  0.0690 -0.0407
    1CHOL    C132415   0.352  27.325   4.988  0.0629  0.2953 -0.0621
    1CHOL    C232416  30.304  27.138   4.918  0.1746 -0.0939 -0.1972
    1CHOL   ROH32417   6.647   9.428   6.009 -0.0564 -0.0279  0.0378
    1CHOL    R132418   6.578   9.379   5.739  0.0260 -0.0793  0.0259
    1CHOL    R232419   6.672   9.534   5.531 -0.1752  0.0892  0.0579
    1CHOL    R332420   6.754   9.294   5.432  0.1642  0.2148  0.0211
    1CHOL    R432421   6.720   9.464   5.196 -0.1887  0.1749  0.0377
    1CHOL    R532422   6.631   9.268   5.229  0.1265  0.0293  0.0656
    1CHOL    C132423   6.825   9.199   4.908  0.1220  0.3427 -0.0087
    1CHOL    C232424   6.650   9.160   4.582 -0.1333 -0.3283  0.1854
    1CHOL   ROH32425  22.051   9.998   4.952 -0.0552  0.0318  0.0303
    1CHOL    R132426  21.775   9.936   4.939 -0.0324 -0.0714  0.0426
    1CHOL    R232427  21.620   9.995   4.718 -0.0891 -0.0169  0.1005
    1CHOL    R332428  21.560   9.730   4.730  0.0144 -0.0479 -0.0307
    1CHOL    R432429  21.373   9.839   4.532 -0.0896  0.0006  0.0854
    1CHOL    R532430  21.322   9.721   4.708  0.0076 -0.1211  0.0381
    1CHOL    C132431  21.174   9.500   4.434  0.0075 -0.0181 -0.0465
    1CHOL    C232432  21.027   9.277   4.092 -0.2932 -0.1715 -0.3635
    1CHOL   ROH32433   2.793  11.755   2.894 -0.1351  0.1687 -0.0256
    1CHOL    R132434   2.814  11.678   3.166 -0.2581  0.0533 -0.0481
    1CHOL    R232435   2.963  11.819   3.350 -0.0406 -0.2276 -0.0016
    1CHOL    R332436   2.730  11.822   3.489 -0.0444  0.0884 -0.0070
    1CHOL    R432437   2.935  11.896   3.686  0.0605 -0.2363  0.0093
    1CHOL    R532438   2.788  11.735   3.705 -0.1743 -0.0305 -0.0186
    1CHOL    C132439   2.699  11.943   4.012  0.1157  0.0554  0.0105
    1CHOL    C232440   2.624  11.832   4.380 -0.1604  0.0618  0.2771
    1CHOL   ROH32441   8.638  12.733   3.388 -0.0640 -0.0748 -0.1029
    1CHOL    R132442   8.701  12.618   3.639  0.0604 -0.0021 -0.1010
    1CHOL    R232443   8.579  12.696   3.874  0.1228  0.0124 -0.0754
    1CHOL    R332444   8.525  12.431   3.897  0.2089  0.0006  0.0043
    1CHOL    R432445   8.393  12.555   4.128 -0.0775  0.0670 -0.1889
    1CHOL    R532446   8.535  12.389   4.132 -0.0112  0.1255  0.0390
    1CHOL    C132447   8.233  12.223   4.297 -0.1134  0.0877 -0.1803
    1CHOL    C232448   8.327  12.494   4.641 -0.0154  0.1292 -0.1650
    1CHOL   ROH32449  26.975  13.529   2.877 -0.0476 -0.1019 -0.1006
    1CHOL    R132450  27.012  13.687   3.110 -0.0706 -0.1081 -0.0930
    1CHOL    R232451  26.848  13.666   3.331 -0.0762 -0.1332 -0.1000
    1CHOL    R332452  27.083  13.627   3.461 -0.0768 -0.1159 -0.0931
    1CHOL    R432453  26.907  13.750   3.661 -0.1469 -0.2931 -0.0454
    1CHOL    R532454  27.105  13.819   3.603 -0.1660 -0.1852  0.0164
    1CHOL    C132455  27.163  13.762   3.976 -0.1886 -0.3699 -0.0070
    1CHOL    C232456  27.211  13.906   4.371  0.0150  0.2495  0.3564
    1CHOL   ROH32457   7.567  13.051   6.173 -0.0722 -0.1699 -0.0202
    1CHOL    R132458   7.391  12.946   5.978 -0.0974  0.0273 -0.1045
    1CHOL    R232459   7.409  13.013   5.711  0.1187 -0.0041 -0.0963
    1CHOL    R332460   7.421  12.744   5.677 -0.1824 -0.0233 -0.0802
    1CHOL    R432461   7.377  12.851   5.407  0.5065  0.0637 -0.1792
    1CHOL    R532462   7.258  12.698   5.507  0.0859  0.2148 -0.4188
    1CHOL    C132463   7.370  12.504   5.199  0.4497  0.0851 -0.2123
    1CHOL    C232464   7.212  12.657   4.932  0.2572  0.2133  0.0481
    1CHOL   ROH32465  29.740   9.777   3.480  0.1314 -0.0882 -0.2418
    1CHOL    R132466  29.892   9.714   3.710  0.1228 -0.0622 -0.2296
    1CHOL    R232467  29.975   9.905   3.892  0.0975 -0.0461 -0.2393
    1CHOL    R332468  29.850   9.743   4.071  0.1021 -0.0435 -0.2327
    1CHOL    R432469  30.033   9.906   4.233  0.0846 -0.0115 -0.2367
    1CHOL    R532470  30.021   9.688   4.230  0.1030 -0.0160 -0.2207
    1CHOL    C132471  29.950   9.753   4.599  0.0815  0.0111 -0.2289
    1CHOL    C232472  29.972   9.951   4.883  0.1655  0.0797  0.0643
    1CHOL   ROH32473   6.710  12.104   5.871  0.0993 -0.0967  0.0674
    1CHOL    R132474   6.565  11.969   5.669  0.1010 -0.1468  0.0995
    1CHOL    R232475   6.529  12.075   5.416 -0.0325 -0.1367  0.1229
    1CHOL    R332476   6.635  11.837   5.337  0.0601 -0.0764  0.0623
    1CHOL    R432477   6.527  11.956   5.091 -0.0933 -0.1066  0.1119
    1CHOL    R532478   6.483  11.757   5.169  0.0369 -0.1378  0.1112
    1CHOL    C132479   6.625  11.664   4.828 -0.0417 -0.0323  0.0487
    1CHOL    C232480   6.521  11.625   4.438  0.3853 -0.0660 -0.2266
    1CHOL   ROH32481  26.389  14.640   2.963 -0.1512  0.0339 -0.1356
    1CHOL    R132482  26.428  14.809   3.187 -0.1042  0.0456 -0.1527
    1CHOL    R232483  26.220  14.939   3.314 -0.0915 -0.0380 -0.0450
    1CHOL    R332484  26.322  14.817   3.535  0.0685 -0.0021 -0.0975
    1CHOL    R432485  26.116  15.000   3.637  0.0239 -0.1081  0.0059
    1CHOL    R532486  26.325  14.990   3.701  0.0589 -0.0099 -0.0889
    1CHOL    C132487  26.151  14.922   4.034  0.2414 -0.1153 -0.0137
    1CHOL    C232488  26.042  14.702   4.350  0.1412  0.3165 -0.2425
    1CHOL   ROH32489  17.888  16.727   3.452  0.1039  0.2242 -0.0452
    1CHOL    R132490  18.064  16.824   3.651 -0.0318  0.2582  0.0602
    1CHOL    R232491  17.974  16.931   3.890 -0.1886 -0.0279  0.1368
    1CHOL    R332492  18.139  16.745   3.999 -0.0028  0.0604  0.0097
    1CHOL    R432493  18.127  16.959   4.199 -0.2876 -0.1250  0.1945
    1CHOL    R532494  18.307  16.873   4.112 -0.1704  0.1521  0.1573
    1CHOL    C132495  18.371  16.800   4.481 -0.1709 -0.0988  0.1088
    1CHOL    C232496  18.165  16.833   4.908 -0.0984  0.2353  0.2444
    1CHOL   ROH32497   4.123  12.647   2.516  0.0712 -0.2464  0.1013
    1CHOL    R132498   3.987  12.779   2.727  0.0790 -0.1473  0.0454
    1CHOL    R232499   3.890  12.645   2.948 -0.0760 -0.0712  0.0259
    1CHOL    R332500   4.038  12.827   3.084 -0.0104 -0.1486  0.0582
    1CHOL    R432501   3.864  12.708   3.287 -0.2047  0.0301 -0.0025
    1CHOL    R532502   3.887  12.921   3.244 -0.0247  0.0031 -0.0430
    1CHOL    C132503   3.988  12.917   3.611 -0.2181  0.0165  0.0113
    1CHOL    C232504   4.106  12.903   4.024 -0.1008  0.2745 -0.0230
    1CHOL   ROH32505   9.540  29.973   5.944  0.0482 -0.1083 -0.0096
    1CHOL    R132506   9.358  30.109   5.776  0.0355 -0.0869  0.0213
    1CHOL    R232507   9.396  30.132   5.503  0.0185 -0.0463  0.0224
    1CHOL    R332508   9.147  30.024   5.491  0.0197 -0.0489  0.0213
    1CHOL    R432509   9.219  30.077   5.212 -0.0029  0.0064  0.0253
    1CHOL    R532510   9.039  30.144   5.315  0.0037 -0.0168  0.0527
    1CHOL    C132511   8.881  29.943   5.031 -0.0141  0.0344  0.0261
    1CHOL    C232512   8.907  29.926   4.693  0.1611 -0.0368  0.2221
    1CHOL   ROH32513   1.091  23.574   3.043 -0.0538 -0.0647  0.0014
    1CHOL    R132514   1.105  23.648   3.316 -0.1183 -0.0670  0.0061
    1CHOL    R232515   1.037  23.476   3.521 -0.1035 -0.0915 -0.0073
    1CHOL    R332516   1.286  23.537   3.611 -0.1347 -0.0243  0.0319
    1CHOL    R432517   1.148  23.422   3.844 -0.2318  0.2053  0.0892
    1CHOL    R532518   1.250  23.614   3.835 -0.2155  0.1904 -0.0538
    1CHOL    C132519   1.446  23.448   4.117 -0.3357  0.4412  0.1823
    1CHOL    C232520   1.457  23.481   4.543 -0.0021  0.3470 -0.1232
    1CHOL   ROH32521   6.451  25.992   4.823 -0.0986  0.0948 -0.0192
    1CHOL    R132522   6.398  25.715   4.848 -0.2206  0.1092 -0.1032
    1CHOL    R232523   6.307  25.562   4.637  0.0350  0.1426 -0.2468
    1CHOL    R332524   6.523  25.408   4.698 -0.0934  0.0789  0.0639
    1CHOL    R432525   6.356  25.237   4.527  0.1888  0.1933 -0.3287
    1CHOL    R532526   6.433  25.187   4.725 -0.1749  0.0777 -0.2128
    1CHOL    C132527   6.588  24.905   4.521  0.1577  0.1631 -0.0846
    1CHOL    C232528   6.710  24.557   4.342  0.0170 -0.0951  0.0519
    1CHOL   ROH32529  28.237  21.378   6.120 -0.1712 -0.3663 -0.0793
    1CHOL    R132530  28.254  21.348   5.839 -0.0772 -0.1983 -0.0927
    1CHOL    R232531  28.051  21.429   5.668 -0.0612 -0.1880 -0.1031
    1CHOL    R332532  28.252  21.569   5.550 -0.0874 -0.0332  0.0305
    1CHOL    R432533  28.061  21.518   5.334  0.0170 -0.0564 -0.0666
    1CHOL    R532534  28.273  21.471   5.332  0.0479  0.0576 -0.0016
    1CHOL    C132535  28.254  21.701   5.029  0.0377  0.1656  0.0801
    1CHOL    C232536  28.439  21.861   4.760 -0.2937 -0.0343 -0.2024
    1CHOL   ROH32537  27.608  23.029   5.973  0.2971  0.1090  0.0479
    1CHOL    R132538  27.632  23.012   5.692  0.1276  0.0896  0.0333
    1CHOL    R232539  27.606  23.231   5.526  0.0371  0.0804  0.0336
    1CHOL    R332540  27.850  23.152   5.436 -0.0191  0.0639 -0.1065
    1CHOL    R432541  27.755  23.344   5.235 -0.0200  0.2432  0.0659
    1CHOL    R532542  27.825  23.141   5.198 -0.1008  0.2473 -0.1075
    1CHOL    C132543  28.072  23.335   4.982 -0.1060  0.3224 -0.0468
    1CHOL    C232544  28.363  23.453   4.794 -0.3614  0.2199 -0.1465
    1CHOL   ROH32545   4.316  24.517   6.049 -0.0694 -0.1213  0.1169
    1CHOL    R132546   4.447  24.617   5.819 -0.0724 -0.0593  0.1427
    1CHOL    R232547   4.537  24.454   5.616 -0.0606 -0.0052  0.1067
    1CHOL    R332548   4.387  24.620   5.460 -0.0670  0.0228  0.1417
    1CHOL    R432549   4.554  24.470   5.271 -0.0865  0.0416  0.1070
    1CHOL    R532550   4.536  24.687   5.285 -0.0771  0.0417  0.1390
    1CHOL    C132551   4.424  24.635   4.924 -0.1077  0.0953  0.1401
    1CHOL    C232552   4.694  24.468   4.707  0.0557  0.4643 -0.1919
    1CHOL   ROH32553   9.642  12.059   3.241 -0.0157 -0.3572 -0.0829
    1CHOL    R132554   9.488  11.988   3.468 -0.0108 -0.2043 -0.0300
    1CHOL    R232555   9.569  11.794   3.648 -0.0181 -0.1023  0.0876
    1CHOL    R332556   9.532  11.993   3.829  0.0090  0.0152 -0.0349
    1CHOL    R432557   9.562  11.751   3.991 -0.0882  0.1053  0.1133
    1CHOL    R532558   9.398  11.893   4.000 -0.0471  0.1575  0.0026
    1CHOL    C132559   9.522  11.913   4.360 -0.1034  0.3364  0.0133
    1CHOL    C232560   9.205  11.819   4.579 -0.3899  0.1928  0.0664
    1CHOL   ROH32561  30.188  24.026   3.069  0.1540 -0.2532  0.0144
    1CHOL    R132562  30.288  24.072   3.330  0.1265  0.0232 -0.0208
    1CHOL    R232563  30.223  24.298   3.476 -0.1965 -0.0004 -0.1193
    1CHOL    R332564  30.147  24.115   3.663  0.1090 -0.0336 -0.0204
    1CHOL    R432565  30.131  24.373   3.801 -0.2843  0.0190 -0.1485
    1CHOL    R532566  30.240  24.197   3.868  0.0044  0.2191 -0.0689
    1CHOL    C132567  30.005  24.246   4.165 -0.0486 -0.0010 -0.0728
    1CHOL    C232568  30.022  24.247   4.483  0.2720 -0.0205  0.1933
    1CHOL   ROH32569   0.498  14.989   6.095 -0.1757 -0.1409 -0.1167
    1CHOL    R132570   0.501  15.094   5.832 -0.2271 -0.2164 -0.1477
    1CHOL    R232571   0.735  15.154   5.698 -0.2581  0.0240 -0.0969
    1CHOL    R332572   0.630  14.991   5.508 -0.0097 -0.1624 -0.0806
    1CHOL    R432573   0.775  15.198   5.358 -0.3005  0.0373 -0.1002
    1CHOL    R532574   0.566  15.141   5.331 -0.2204 -0.2761 -0.1056
    1CHOL    C132575   0.699  15.072   4.981 -0.0920 -0.1300 -0.0868
    1CHOL    C232576   0.791  15.217   4.618 -0.1814 -0.0778  0.1153
    1CHOL   ROH32577   0.080  13.493   6.036 -0.1431  0.1792  0.0609
    1CHOL    R132578   0.053  13.557   5.762 -0.0632  0.0215  0.0164
    1CHOL    R232579   0.244  13.701   5.623 -0.0977  0.0722  0.0320
    1CHOL    R332580   0.236  13.488   5.455  0.1165 -0.0166  0.1294
    1CHOL    R432581   0.289  13.718   5.281  0.0449 -0.0567  0.0422
    1CHOL    R532582   0.129  13.572   5.258  0.1464 -0.1757  0.0396
    1CHOL    C132583   0.308  13.528   4.924  0.3291 -0.2151  0.1396
    1CHOL    C232584   0.349  13.466   4.610  0.0612 -0.3558 -0.1353
    1CHOL   ROH32585   2.280  20.015   2.418 -0.0621 -0.0347 -0.0035
    1CHOL    R132586   2.204  20.016   2.691 -0.0451 -0.0705  0.0018
    1CHOL    R232587   2.370  19.923   2.892  0.0033 -0.0157 -0.0097
    1CHOL    R332588   2.324  20.169   2.998 -0.0808 -0.0345 -0.0030
    1CHOL    R432589   2.321  19.987   3.228  0.3461  0.0079  0.0391
    1CHOL    R532590   2.165  20.130   3.173  0.1585 -0.1356  0.1944
    1CHOL    C132591   2.249  20.255   3.523  0.4666  0.0041  0.0738
    1CHOL    C232592   2.084  20.254   3.900 -0.3860 -0.1162  0.0840
    1CHOL   ROH32593   3.202  22.837   6.454  0.0941  0.1444  0.0011
    1CHOL    R132594   3.256  22.956   6.203  0.0093  0.1574 -0.0101
    1CHOL    R232595   3.443  22.853   6.026 -0.1103  0.1243 -0.1075
    1CHOL    R332596   3.233  22.858   5.853 -0.1871  0.2104 -0.0154
    1CHOL    R432597   3.467  22.920   5.688 -0.1787 -0.1475 -0.1697
    1CHOL    R532598   3.285  23.037   5.703 -0.0605  0.0566 -0.1696
    1CHOL    C132599   3.285  22.963   5.329 -0.2908 -0.2252 -0.1196
    1CHOL    C232600   3.072  23.180   5.135  0.0373 -0.0298  0.2601
    1CHOL   ROH32601  23.988   8.849   5.161 -0.0120 -0.2768 -0.0189
    1CHOL    R132602  23.935   9.028   4.948  0.0690 -0.2364 -0.0059
    1CHOL    R232603  23.822   8.945   4.711 -0.0402 -0.1548  0.0153
    1CHOL    R332604  23.642   9.142   4.765  0.1093 -0.0280  0.0575
    1CHOL    R432605  23.605   9.082   4.478 -0.4185 -0.4302  0.1958
    1CHOL    R532606  23.643   9.278   4.567 -0.2013 -0.3094 -0.1490
    1CHOL    C132607  23.310   9.346   4.394 -0.4984 -0.4716  0.3405
    1CHOL    C232608  23.267   9.344   4.023  0.1734  0.1195  0.1113
    1CHOL   ROH32609  24.959  23.053   5.995  0.4662  0.3515 -0.1436
    1CHOL    R132610  25.003  22.915   5.752  0.3890  0.2236 -0.0873
    1CHOL    R232611  24.812  22.898   5.553  0.3212  0.1132 -0.0183
    1CHOL    R332612  25.010  23.000   5.398  0.2690  0.0398 -0.1339
    1CHOL    R432613  24.834  22.861   5.210  0.2098 -0.0421 -0.0095
    1CHOL    R532614  25.049  22.832   5.232  0.2131 -0.0330 -0.0698
    1CHOL    C132615  25.033  22.935   4.865  0.0962 -0.2015 -0.1128
    1CHOL    C232616  25.136  22.870   4.513  0.1588  0.1702  0.1512
    1CHOL   ROH32617  25.528  18.251   5.737 -0.0222 -0.0053 -0.1471
    1CHOL    R132618  25.424  18.266   5.474  0.0865  0.0355 -0.1888
    1CHOL    R232619  25.484  18.474   5.303  0.1489  0.0694 -0.1298
    1CHOL    R332620  25.560  18.273   5.136  0.2287  0.1006 -0.1309
    1CHOL    R432621  25.418  18.464   4.964  0.2003  0.0675 -0.1394
    1CHOL    R532622  25.376  18.250   4.984  0.2581  0.0563 -0.1578
    1CHOL    C132623  25.450  18.269   4.610  0.3049  0.0960 -0.1461
    1CHOL    C232624  25.393  18.139   4.196  0.1135  0.1446 -0.0430
    1CHOL   ROH32625  18.316  10.600   3.710  0.0275 -0.2174 -0.0510
    1CHOL    R132626  18.453  10.565   3.956 -0.1630 -0.2729  0.0503
    1CHOL    R232627  18.405  10.352   4.124 -0.0720 -0.4897 -0.1852
    1CHOL    R332628  18.674  10.316   4.103 -0.0031 -0.1456  0.0271
    1CHOL    R432629  18.591  10.131   4.315 -0.0132 -0.5865 -0.3535
    1CHOL    R532630  18.748  10.282   4.328 -0.1958 -0.4234  0.0508
    1CHOL    C132631  18.952   9.969   4.406  0.0858 -0.3197 -0.2522
    1CHOL    C232632  19.248   9.827   4.446  0.1060  0.1371  0.0841
    1CHOL   ROH32633  22.943   0.744   3.957 -0.2084 -0.1305  0.1476
    1CHOL    R132634  22.893   0.910   4.181 -0.1434 -0.0871  0.1328
    1CHOL    R232635  22.962   0.837   4.438 -0.0169 -0.0158  0.1297
    1CHOL    R332636  23.091   1.076   4.436 -0.0600  0.0050  0.0057
    1CHOL    R432637  23.089   0.996   4.718 -0.0973  0.1952  0.0463
    1CHOL    R532638  23.018   1.185   4.637 -0.1114  0.1238 -0.0849
    1CHOL    C132639  23.284   1.313   4.879 -0.1847  0.3375 -0.1186
    1CHOL    C232640  23.529   1.195   5.158  0.1564  0.1824 -0.0519
    1CHOL   ROH32641   3.233  19.413   5.632 -0.0038  0.0714 -0.0603
    1CHOL    R132642   3.252  19.495   5.362  0.1338  0.0164 -0.0678
    1CHOL    R232643   3.486  19.477   5.217  0.1461 -0.2430 -0.0176
    1CHOL    R332644   3.331  19.338   5.043  0.0378 -0.1087 -0.0314
    1CHOL    R432645   3.513  19.491   4.873  0.0976 -0.1605 -0.0188
    1CHOL    R532646   3.296  19.488   4.861  0.0915 -0.0353  0.0163
    1CHOL    C132647   3.383  19.368   4.509 -0.0324  0.0137 -0.0324
    1CHOL    C232648   3.689  19.482   4.205 -0.0999 -0.0049 -0.1099
    1CHOL   ROH32649  29.868  20.145   5.858  0.2200 -0.0327  0.0099
    1CHOL    R132650  29.945  20.041   5.606  0.3628 -0.0072  0.0427
    1CHOL    R232651  29.821  20.113   5.371  0.0637 -0.4603  0.0476
    1CHOL    R332652  30.074  20.175   5.293 -0.1078  0.1223 -0.1030
    1CHOL    R432653  29.929  20.129   5.042 -0.1060 -0.4288 -0.0079
    1CHOL    R532654  30.115  20.033   5.104  0.1706  0.0782 -0.0118
    1CHOL    C132655  30.229  20.195   4.779 -0.3656  0.1368 -0.1817
    1CHOL    C232656   0.086  20.208   4.440 -0.0704 -0.1486  0.2923
    1CHOL   ROH32657  29.518  13.197   2.462 -0.1777  0.1121  0.0422
    1CHOL    R132658  29.387  13.200   2.713 -0.1097  0.0640  0.0789
    1CHOL    R232659  29.445  13.019   2.913  0.0240  0.0954  0.0689
    1CHOL    R332660  29.484  13.244   3.061 -0.0316  0.1169  0.0513
    1CHOL    R432661  29.417  13.036   3.257  0.2369  0.0592  0.0893
    1CHOL    R532662  29.319  13.230   3.235  0.0890 -0.0040  0.1594
    1CHOL    C132663  29.437  13.257   3.596  0.3087  0.0581  0.0846
    1CHOL    C232664  29.326  13.300   3.934 -0.0189 -0.1229  0.2564
    1CHOL   ROH32665   6.761  18.798   5.250  0.2836  0.0411  0.0221
    1CHOL    R132666   6.666  18.858   4.991  0.3084  0.0180  0.0093
    1CHOL    R232667   6.827  18.849   4.767  0.2709 -0.2318 -0.0017
    1CHOL    R332668   6.634  18.683   4.673  0.1011 -0.0895  0.0854
    1CHOL    R432669   6.759  18.794   4.433  0.1135 -0.2059  0.0239
    1CHOL    R532670   6.547  18.795   4.481  0.1232 -0.0307  0.1026
    1CHOL    C132671   6.538  18.605   4.150 -0.1375 -0.0572  0.1205
    1CHOL    C232672   6.583  18.559   3.708 -0.1343  0.1990 -0.1734
    1CHOL   ROH32673   0.163  21.839   2.680  0.2286 -0.1580  0.0495
    1CHOL    R132674   0.104  21.775   2.949  0.0334  0.2213  0.1032
    1CHOL    R232675   0.269  21.616   3.104 -0.3980 -0.1067  0.2362
    1CHOL    R332676   0.260  21.828   3.274  0.1654  0.0724  0.0675
    1CHOL    R432677   0.318  21.597   3.446 -0.5656 -0.0021  0.2676
    1CHOL    R532678   0.156  21.741   3.472 -0.1714  0.5128  0.1060
    1CHOL    C132679   0.338  21.785   3.804 -0.1343  0.2270  0.1276
    1CHOL    C232680   0.437  21.549   4.036  0.2127 -0.2191  0.3146
    1CHOL   ROH32681   0.895  16.475   2.421  0.2955 -0.1677 -0.1476
    1CHOL    R132682   0.899  16.407   2.696  0.2528 -0.1049 -0.1299
    1CHOL    R232683   1.134  16.366   2.836  0.2376 -0.0134 -0.0645
    1CHOL    R332684   1.029  16.554   3.002  0.1490  0.0002 -0.1375
    1CHOL    R432685   1.264  16.453   3.144  0.0077 -0.0487  0.0436
    1CHOL    R532686   1.062  16.465   3.222 -0.0451 -0.0088 -0.1167
    1CHOL    C132687   1.242  16.680   3.480 -0.2093 -0.0565  0.0379
    1CHOL    C232688   1.432  16.961   3.701 -0.2135  0.1689 -0.0294
    1CHOL   ROH32689   8.307   0.921   6.424 -0.0975  0.0146 -0.0365
    1CHOL    R132690   8.226   0.753   6.211 -0.1032  0.0353 -0.0507
    1CHOL    R232691   8.064   0.841   6.006 -0.1661  0.0368 -0.0013
    1CHOL    R332692   8.266   0.746   5.850 -0.1762  0.1113 -0.0603
    1CHOL    R432693   8.032   0.761   5.671 -0.2902 -0.1815  0.0610
    1CHOL    R532694   8.159   0.586   5.707 -0.1276 -0.0590  0.0914
    1CHOL    C132695   8.203   0.625   5.330 -0.3719 -0.2385  0.0419
    1CHOL    C232696   8.056   0.391   5.140 -0.0171 -0.1751  0.0009
    1CHOL   ROH32697   6.314  16.322   2.367  0.0986  0.2392 -0.0127
    1CHOL    R132698   6.156  16.264   2.595  0.0288  0.1791 -0.0770
    1CHOL    R232699   6.265  16.232   2.847 -0.0435  0.0573 -0.0651
    1CHOL    R332700   6.084  16.423   2.914 -0.0244  0.0642 -0.0300
    1CHOL    R432701   6.154  16.292   3.168 -0.0405 -0.0028 -0.0521
    1CHOL    R532702   5.953  16.321   3.087 -0.0393  0.0369 -0.0528
    1CHOL    C132703   5.919  16.507   3.419 -0.0208 -0.0314 -0.0115
    1CHOL    C232704   5.828  16.340   3.743  0.1389 -0.0629 -0.0594
    1CHOL   ROH32705   9.647  15.255   6.214 -0.0591  0.1398 -0.1428
    1CHOL    R132706   9.706  15.116   5.975 -0.1399  0.1360 -0.1611
    1CHOL    R232707   9.734  15.243   5.731  0.0387  0.1667 -0.1267
    1CHOL    R332708   9.974  15.115   5.729 -0.0819 -0.0662 -0.1000
    1CHOL    R432709   9.959  15.252   5.470  0.1390  0.0673 -0.0444
    1CHOL    R532710   9.999  15.041   5.502 -0.0777  0.0118 -0.1256
    1CHOL    C132711  10.316  15.138   5.315  0.0842 -0.2091  0.0286
    1CHOL    C232712  10.735  15.198   5.036 -0.1516 -0.2535  0.1704
    1CHOL   ROH32713   9.057  20.727   2.885  0.1755 -0.0553 -0.1841
    1CHOL    R132714   9.134  20.472   2.980  0.0599 -0.0696 -0.1333
    1CHOL    R232715   9.258  20.435   3.225 -0.0437 -0.0835 -0.0947
    1CHOL    R332716   9.053  20.261   3.265 -0.1062 -0.0258 -0.1431
    1CHOL    R432717   9.234  20.214   3.490 -0.2357  0.0405 -0.0036
    1CHOL    R532718   9.158  20.064   3.352 -0.1853 -0.0116  0.0083
    1CHOL    C132719   9.028  19.922   3.681 -0.4062  0.1672  0.0041
    1CHOL    C232720   8.854  19.925   3.959 -0.1301 -0.3351  0.3120
    1CHOL   ROH32721   9.390   7.697   3.534 -0.0429 -0.1150 -0.0384
    1CHOL    R132722   9.582   7.652   3.737  0.0536 -0.0051 -0.1037
    1CHOL    R232723   9.838   7.756   3.725 -0.0118  0.1578 -0.1833
    1CHOL    R332724   9.774   7.856   3.969  0.0017  0.1053 -0.1585
    1CHOL    R432725  10.067   7.869   3.958  0.0099 -0.0968 -0.0781
    1CHOL    R532726   9.947   7.775   4.114 -0.0930 -0.0736 -0.1470
    1CHOL    C132727  10.140   8.029   4.323  0.0353 -0.2944  0.0065
    1CHOL    C232728  10.115   7.994   4.637  0.1441  0.0672 -0.0444
    1CHOL   ROH32729  27.157  21.516   2.554  0.1065 -0.1112  0.0559
    1CHOL    R132730  27.113  21.456   2.827 -0.0027 -0.0676  0.0495
    1CHOL    R232731  27.246  21.251   2.958 -0.1552 -0.1427  0.1024
    1CHOL    R332732  27.312  21.449   3.132 -0.0845 -0.1647  0.0992
    1CHOL    R432733  27.330  21.203   3.290  0.1040 -0.1819  0.0324
    1CHOL    R532734  27.215  21.381   3.340  0.0927 -0.2319  0.1557
    1CHOL    C132735  27.441  21.361   3.646  0.3213 -0.2255 -0.0113
    1CHOL    C232736  27.228  21.345   4.034  0.1779  0.0053  0.2510
    1CHOL   ROH32737   7.812  16.761   5.601  0.0583 -0.1570 -0.1354
    1CHOL    R132738   7.670  16.796   5.358 -0.0110 -0.1410 -0.0925
    1CHOL    R232739   7.797  16.819   5.113 -0.0776 -0.0503 -0.1175
    1CHOL    R332740   7.633  16.614   5.045 -0.0380 -0.0803 -0.1253
    1CHOL    R432741   7.693  16.748   4.792  0.0021 -0.1065 -0.1314
    1CHOL    R532742   7.495  16.703   4.871 -0.0109 -0.1197 -0.1682
    1CHOL    C132743   7.478  16.513   4.540  0.0858 -0.1671 -0.1468
    1CHOL    C232744   7.171  16.435   4.270  0.3519 -0.0864  0.0474
    1CHOL   ROH32745  10.911  28.623   3.656  0.2160 -0.1267 -0.1390
    1CHOL    R132746  10.874  28.623   3.937  0.0813  0.0241 -0.1543
    1CHOL    R232747  10.781  28.402   4.074 -0.0690  0.1189 -0.0846
    1CHOL    R332748  11.007  28.439   4.221 -0.1206  0.1102 -0.0051
    1CHOL    R432749  10.875  28.208   4.345 -0.0902  0.0417 -0.1335
    1CHOL    R532750  10.940  28.390   4.446 -0.1621  0.0087 -0.0463
    1CHOL    C132751  11.141  28.131   4.641 -0.1509 -0.0116 -0.0873
    1CHOL    C232752  11.201  27.720   4.723 -0.1291  0.2314  0.0400
    1CHOL   ROH32753  27.556  11.443   2.728 -0.1940  0.1113  0.0070
    1CHOL    R132754  27.516  11.393   3.004 -0.2335  0.2405  0.0251
    1CHOL    R232755  27.724  11.394   3.187 -0.2288  0.1207  0.0191
    1CHOL    R332756  27.567  11.575   3.315 -0.0684  0.3041 -0.0375
    1CHOL    R432757  27.764  11.492   3.516 -0.3268 -0.0486  0.0831
    1CHOL    R532758  27.548  11.489   3.538 -0.3539  0.2525 -0.0779
    1CHOL    C132759  27.640  11.719   3.828 -0.2333  0.0250  0.0672
    1CHOL    C232760  27.594  11.964   4.131 -0.2768  0.0468 -0.1712
    1CHOL   ROH32761   9.150  25.385   3.324 -0.0011  0.0682 -0.0618
    1CHOL    R132762   9.328  25.473   3.526 -0.1401  0.0829  0.0547
    1CHOL    R232763   9.258  25.479   3.793 -0.1660 -0.3535  0.0597
    1CHOL    R332764   9.483  25.330   3.823  0.0605 -0.0588 -0.1139
    1CHOL    R432765   9.428  25.434   4.091 -0.1337 -0.4674  0.0251
    1CHOL    R532766   9.615  25.452   3.981 -0.1383 -0.0469  0.0542
    1CHOL    C132767   9.738  25.268   4.292  0.0978 -0.2571 -0.1582
    1CHOL    C232768   9.634  24.960   4.622  0.0097  0.1990 -0.1855
    1CHOL   ROH32769   1.380  13.801   6.040 -0.0481 -0.0132  0.0814
    1CHOL    R132770   1.266  13.671   5.816 -0.0371 -0.0858  0.1165
    1CHOL    R232771   1.154  13.811   5.604 -0.1851 -0.1546  0.1453
    1CHOL    R332772   1.326  13.661   5.457 -0.1359 -0.0519  0.0991
    1CHOL    R432773   1.144  13.780   5.260 -0.1664 -0.0446  0.1352
    1CHOL    R532774   1.191  13.568   5.283 -0.1014 -0.0364  0.0657
    1CHOL    C132775   1.301  13.622   4.922 -0.1093  0.1157  0.0859
    1CHOL    C232776   1.397  13.585   4.547 -0.0552 -0.1905 -0.0485
    1CHOL   ROH32777   9.717  12.951   3.548 -0.0443 -0.0575  0.0155
    1CHOL    R132778   9.505  12.925   3.734 -0.0818  0.0295 -0.0145
    1CHOL    R232779   9.544  12.830   3.990 -0.1842 -0.1513 -0.0647
    1CHOL    R332780   9.422  13.063   4.060  0.0214 -0.0773  0.0583
    1CHOL    R432781   9.480  12.930   4.315 -0.4203 -0.4448 -0.0167
    1CHOL    R532782   9.286  13.004   4.249 -0.2621 -0.1328 -0.1549
    1CHOL    C132783   9.329  13.206   4.570 -0.3646 -0.5463  0.1267
    1CHOL    C232784   9.663  13.253   4.807 -0.2071 -0.0496  0.0004
    1CHOL   ROH32785   2.943  20.784   5.816 -0.0525 -0.1064  0.0551
    1CHOL    R132786   3.079  20.837   5.574  0.0065  0.0226  0.1153
    1CHOL    R232787   3.003  20.726   5.332  0.2139 -0.0459  0.0767
    1CHOL    R332788   2.997  20.986   5.251  0.0099 -0.0477  0.0824
    1CHOL    R432789   3.110  20.839   5.023  0.3852  0.0808  0.1807
    1CHOL    R532790   3.198  21.012   5.123  0.1053  0.1741  0.2715
    1CHOL    C132791   3.167  21.147   4.767  0.2935  0.1526  0.2465
    1CHOL    C232792   3.058  21.169   4.417 -0.2731 -0.0516  0.2320
    1CHOL   ROH32793  26.513  22.565   6.042  0.1285 -0.0087 -0.0557
    1CHOL    R132794  26.487  22.458   5.781 -0.1905  0.0031 -0.0333
    1CHOL    R232795  26.284  22.533   5.609 -0.1166  0.3939  0.0366
    1CHOL    R332796  26.491  22.587   5.441 -0.0615 -0.0437 -0.0500
    1CHOL    R432797  26.253  22.586   5.270 -0.1394  0.4341  0.0453
    1CHOL    R532798  26.435  22.471   5.239 -0.3835  0.0506 -0.0201
    1CHOL    C132799  26.428  22.669   4.914 -0.1011  0.0465 -0.0310
    1CHOL    C232800  26.669  22.664   4.762  0.0090  0.3581  0.1887
    1CHOL   ROH32801  30.255  19.859   2.473 -0.0140  0.0777 -0.0241
    1CHOL    R132802  30.144  19.835   2.732  0.0415 -0.1522 -0.0191
    1CHOL    R232803  30.274  19.704   2.938  0.2335 -0.0608 -0.0744
    1CHOL    R332804  30.234  19.939   3.069 -0.0525 -0.1495  0.0040
    1CHOL    R432805  30.319  19.751   3.277  0.0738 -0.1320 -0.0426
    1CHOL    R532806  30.140  19.874   3.279 -0.0525 -0.3213 -0.0514
    1CHOL    C132807  30.308  19.998   3.598 -0.2873 -0.2570  0.0495
    1CHOL    C232808   0.164  20.129   3.955 -0.1047  0.5238 -0.0863
    1CHOL   ROH32809  21.735  14.162   5.796  0.0084  0.0017  0.1916
    1CHOL    R132810  21.880  14.152   5.553  0.0330  0.1782  0.1990
    1CHOL    R232811  21.761  14.090   5.311  0.1334 -0.0554  0.2109
    1CHOL    R332812  21.873  14.326   5.233 -0.2266  0.1062  0.1625
    1CHOL    R432813  21.882  14.157   4.994  0.0225  0.0660  0.1924
    1CHOL    R532814  22.050  14.263   5.085 -0.1289  0.3433  0.1690
    1CHOL    C132815  22.057  14.417   4.737 -0.3802  0.2883  0.1361
    1CHOL    C232816  22.365  14.588   4.794  0.1701  0.2904  0.1042
    1CHOL   ROH32817  10.643  11.590   6.252  0.1722 -0.0280  0.0412
    1CHOL    R132818  10.535  11.761   6.054  0.1153  0.0046  0.1002
    1CHOL    R232819  10.683  11.957   5.929  0.1039 -0.0349  0.0261
    1CHOL    R332820  10.598  11.833   5.703 -0.0485 -0.0070  0.0668
    1CHOL    R432821  10.797  12.028   5.610 -0.1507  0.0483 -0.0485
    1CHOL    R532822  10.592  12.006   5.538 -0.2054  0.0260  0.1039
    1CHOL    C132823  10.783  11.952   5.212 -0.4419  0.1230 -0.0537
    1CHOL    C232824  10.805  11.880   4.830  0.0693 -0.1838  0.1124
    1CHOL   ROH32825  27.445  14.530   2.572 -0.1215 -0.0758  0.0773
    1CHOL    R132826  27.512  14.462   2.839 -0.0798 -0.0607  0.0708
    1CHOL    R232827  27.733  14.566   2.967 -0.0368 -0.0860  0.0166
    1CHOL    R332828  27.550  14.639   3.155  0.0138 -0.0362  0.0465
    1CHOL    R432829  27.792  14.577   3.308  0.0049 -0.1754  0.0121
    1CHOL    R532830  27.594  14.494   3.340 -0.0321 -0.0916  0.0157
    1CHOL    C132831  27.655  14.652   3.682  0.0766 -0.1809  0.0376
    1CHOL    C232832  28.034  14.634   3.869  0.1659  0.1073 -0.0659
    1W        W32833   5.314  22.864   1.364  0.2889  0.3401 -0.0951
    1W        W32834  21.300  27.947   3.256 -0.2473  0.0102 -0.1491
    1W        W32835  21.017  25.607   6.702  0.1607 -0.0935 -0.0975
    1W        W32836  18.420  21.717   1.952  0.2725 -0.2447  0.0986
    1W        W32837  10.761  30.157   7.807 -0.0799 -0.0856 -0.0201
    1W        W32838   1.586  21.290   2.245 -0.1132 -0.0436 -0.0752
    1W        W32839   6.343   5.531   1.327 -0.1593  0.0462  0.0583
    1W        W32840  26.655   8.743   0.696  0.2789 -0.0166 -0.5438
    1W        W32841  10.291  17.579   8.567  0.1819 -0.0737 -0.1778
    1W        W32842   3.795  18.199   6.234  0.0268 -0.1020 -0.1677
    1W        W32843   7.587  15.594   1.257  0.0170  0.1416 -0.3432
    1W        W32844  21.773   9.794   1.072 -0.1758 -0.0132 -0.3351
    1W        W32845  13.319  22.620   6.899 -0.0865 -0.0335  0.3589
    1W        W32846  25.201  12.687   0.003  0.1087 -0.1610 -0.1342
    1W        W32847  11.689  22.407   8.289 -0.1614  0.1872 -0.0088
    1W        W32848  27.805   3.712   9.261  0.0318  0.0114  0.2568
    1W        W32849   9.634   3.987   1.414 -0.2886  0.1707  0.1133
    1W        W32850  24.183  11.591   5.581 -0.0998 -0.2210  0.1483
    1W        W32851  26.001  17.400   7.017 -0.1669  0.2425  0.0581
    1W        W32852   5.649  17.206   6.541  0.1983  0.2434 -0.1967
    1W        W32853  23.397  21.264   5.678  0.2131  0.0379  0.4895
    1W        W32854  17.647  14.408   0.013  0.0658 -0.2547  0.3329
    1W        W32855   0.540   9.480   6.876 -0.2130  0.0701  0.0429
    1W        W32856  14.299  20.812   5.732  0.0986 -0.0910 -0.2656
    1W        W32857   7.035   2.543   7.572 -0.0280  0.1129 -0.2333
    1W        W32858  21.596  17.666   6.074 -0.0411 -0.1616 -0.1093
    1W        W32859   1.607  29.121   8.766 -0.1791  0.0484  0.0301
    1W        W32860   6.724   0.967   1.903 -0.1348  0.3136 -0.1117
    1W        W32861  23.787  20.693   0.213 -0.0619  0.2638  0.0363
    1W        W32862  13.386   8.165   1.306  0.0693  0.3990 -0.1038
    1W        W32863  11.888  26.981   1.351 -0.1636  0.1141  0.0422
    1W        W32864  25.338  17.165   1.308  0.1438  0.0254  0.0257
    1W        W32865  29.421  17.487   1.459 -0.2518 -0.3095 -0.0532
    1W        W32866  12.537   1.094   9.074 -0.0469 -0.0685  0.0855
    1W        W32867  21.650  16.691   0.130  0.0462 -0.1640 -0.1066
    1W        W32868  18.096   1.757   7.215 -0.0990 -0.0800  0.0931
    1W        W32869   9.204  12.462   1.991  0.0609  0.0976  0.5355
    1W        W32870  18.498  12.835   6.885 -0.0391  0.0684 -0.2433
    1W        W32871  25.772  12.132   8.642 -0.1650 -0.1785 -0.0904
    1W        W32872  30.043  13.765   7.307 -0.1321  0.4230  0.2354
    1W        W32873   8.882   2.809   0.962 -0.1470 -0.1153  0.0079
    1W        W32874  10.933  18.463   5.946 -0.0899 -0.3319 -0.0761
    1W        W32875   2.259  12.774   1.252 -0.1067 -0.3270 -0.1310
    1W        W32876   8.839  13.601   8.208 -0.2084 -0.0669 -0.0205
    1W        W32877  26.490   7.595   1.201  0.1475  0.0760 -0.1056
    1W        W32878  19.786  21.529   0.028 -0.0687 -0.1165  0.2644
    1W        W32879  11.753  13.061   7.933 -0.1009  0.1695 -0.0620
    1W        W32880   6.008  27.485   1.190 -0.0854 -0.0066  0.2220
    1W        W32881  24.991  19.963   6.077  0.2095  0.2094  0.0986
    1W        W32882  29.854   4.193   2.251  0.0264 -0.0126  0.2570
    1W        W32883  29.069  10.288   1.818 -0.1169  0.2769 -0.0969
    1W        W32884  24.099  22.190   0.527 -0.2873 -0.0672  0.0056
    1W        W32885  11.066   7.353   2.431  0.3523  0.0986 -0.4702
    1W        W32886  25.878   1.424   8.247 -0.0316  0.0009  0.1254
    1W        W32887  29.958  20.291   0.316  0.4863  0.0275 -0.4657
    1W        W32888  23.495   4.120   0.214 -0.0297  0.0474  0.1135
    1W        W32889  16.815  18.847   1.505  0.3639 -0.0650  0.0737
    1W        W32890   5.408  19.770   0.299  0.0287 -0.0342  0.1965
    1W        W32891  22.481  14.090   6.259  0.0296  0.1722  0.1031
    1W        W32892   3.791  24.885   1.385  0.1331 -0.0459 -0.2245
    1W        W32893  27.347  26.136   8.156  0.1417  0.2542  0.0972
    1W        W32894  16.668   4.709   6.446  0.1870 -0.0140 -0.0451
    1W        W32895  14.611  11.018   2.687  0.1046  0.2709  0.0472
    1W        W32896  28.782   1.112   0.059 -0.2534  0.0350 -0.2236
    1W        W32897  23.317  14.284   0.075 -0.0176 -0.1381 -0.2886
    1W        W32898  17.395  28.384   8.288  0.0714 -0.2218 -0.4945
    1W        W32899  16.296  23.131   8.318  0.3323  0.1234  0.1877
    1W        W32900   6.008  14.405   0.682  0.0607  0.2504 -0.1024
    1W        W32901   4.697   4.991   8.513  0.1188  0.2856  0.2719
    1W        W32902  18.309   4.342   6.528  0.0792 -0.0883 -0.0492
    1W        W32903   2.151   7.239   2.474  0.1169 -0.0781 -0.3571
    1W        W32904  28.264   1.460   1.934 -0.1188 -0.2169 -0.1177
    1W        W32905   1.004  16.306   0.686 -0.2246 -0.0613 -0.1166
    1W        W32906  27.112  24.743   0.746 -0.0479  0.0347 -0.0337
    1W        W32907   2.438  10.994   8.174 -0.2416 -0.3818 -0.3001
    1W        W32908  18.785  21.956   6.726 -0.2890  0.0140 -0.0963
    1W        W32909   1.009  22.563   8.183  0.2703  0.1264 -0.2814
    1W        W32910   2.039   0.742   0.890  0.1829 -0.0566  0.0535
    1W        W32911  22.008   7.130   2.002  0.1168  0.0355  0.3194
    1W        W32912  17.454  20.177   8.967  0.0971  0.0489 -0.2292
    1W        W32913   5.848  26.519   7.544 -0.2033  0.1501 -0.1385
    1W        W32914  27.012   6.566   1.292 -0.0081  0.1550 -0.2738
    1W        W32915   3.762  25.938   2.331 -0.2357  0.2081 -0.1872
    1W        W32916  14.203  23.162   1.722  0.1953  0.1710 -0.1182
    1W        W32917  19.417  15.512   7.208 -0.1335 -0.0725  0.0162
    1W        W32918   5.391  26.736   2.755 -0.1306  0.1312 -0.0437
    1W        W32919  27.267   6.510   2.774 -0.3783  0.0257  0.0567
    1W        W32920   9.517   1.446   0.301  0.0294 -0.0529  0.2037
    1W        W32921  27.134  18.174   8.869  0.2557  0.2093  0.0738
    1W        W32922  21.778   0.734   8.456  0.3160 -0.0714  0.1088
    1W        W32923  29.114   1.324   1.132 -0.1347 -0.2592  0.0996
    1W        W32924  22.672   1.354   7.590 -0.0108  0.2896  0.1614
    1W        W32925   1.247  25.305   0.615  0.0022 -0.1473 -0.0820
    1W        W32926  26.828  23.648   2.068 -0.2137 -0.0341  0.0856
    1W        W32927   2.747  15.522   1.336  0.0550  0.0220  0.3949
    1W        W32928  19.402  22.435   1.131  0.3013 -0.1946 -0.1657
    1W        W32929  11.859  18.067   7.800  0.0137 -0.1445  0.1876
    1W        W32930  15.171   7.226   1.277 -0.3513  0.2064 -0.0064
    1W        W32931  12.125  13.145   1.999  0.0052  0.1073 -0.4922
    1W        W32932  25.559  21.992   7.373  0.2228 -0.2787 -0.2844
    1W        W32933   2.532  15.346   6.920  0.0533  0.0922  0.2141
    1W        W32934  29.572  29.214   3.273 -0.0357  0.0905  0.2649
    1W        W32935  22.467  27.422   1.302  0.0285 -0.2291 -0.1751
    1W        W32936   6.572  30.353   8.609  0.1296  0.1386  0.0940
    1W        W32937  19.143   3.125   0.190  0.2657  0.0845 -0.1954
    1W        W32938  14.949  16.325   2.553 -0.0434  0.1093 -0.3176
    1W        W32939   4.322  16.702   6.969  0.0032 -0.3051  0.0485
    1W        W32940   6.665  24.193   0.760 -0.1493  0.0262 -0.4004
    1W        W32941  14.740  28.234   8.271  0.1890 -0.3980  0.0258
    1W        W32942   5.448  19.861   7.498  0.0295  0.0486  0.0396
    1W        W32943  14.069  19.813   7.463 -0.0919 -0.0536 -0.0679
    1W        W32944   5.540  15.587   7.356  0.2384 -0.1332  0.4397
    1W        W32945  20.227  12.966   3.043 -0.0594 -0.1878 -0.2540
    1W        W32946  23.423  21.621   7.323 -0.0795 -0.1166 -0.1948
    1W        W32947  13.403   0.769   0.899  0.2656 -0.3217 -0.2370
    1W        W32948   0.378   6.684   9.232 -0.1602 -0.1365  0.0953
    1W        W32949  28.867  18.642   0.870 -0.0131 -0.0632 -0.1530
    1W        W32950  18.351   7.195   7.205  0.0125 -0.0249  0.1546
    1W        W32951   1.013   3.048   0.018 -0.3415 -0.0719  0.2851
    1W        W32952   8.968  20.987   7.101 -0.0370 -0.2628  0.1521
    1W        W32953  27.588  30.216   7.425  0.2451 -0.0007  0.2607
    1W        W32954  23.898   3.730   0.869  0.2626 -0.0306 -0.3635
    1W        W32955  27.326  14.957   6.373  0.0768  0.1915 -0.0298
    1W        W32956  18.258  15.166   1.726  0.1008 -0.0816 -0.0544
    1W        W32957  27.394  22.569   1.374 -0.0243 -0.0966  0.4148
    1W        W32958  22.394  29.257   0.152  0.2356 -0.3394 -0.1979
    1W        W32959   6.697  30.274   0.362  0.1645  0.3597 -0.0991
    1W        W32960  24.231  10.453   6.283  0.1695  0.0405  0.2095
    1W        W32961   8.718  18.570   2.197  0.2567  0.2335  0.3205
    1W        W32962  10.669  10.444   3.520 -0.1269 -0.0195 -0.0748
    1W        W32963   9.834   7.531   7.069  0.0048  0.3097 -0.3170
    1W        W32964   3.085  10.703   2.631 -0.0063 -0.0219 -0.2977
    1W        W32965  21.442   8.845   1.050 -0.2853  0.0638 -0.0153
    1W        W32966   1.761  16.273   9.058 -0.2527 -0.0454 -0.1976
    1W        W32967  18.352  16.396   1.048  0.1803  0.2165  0.3047
    1W        W32968  29.234  25.681   7.411  0.0617 -0.1020  0.1399
    1W        W32969   1.963  10.125   0.873 -0.2089  0.1358 -0.0004
    1W        W32970  19.228   8.411   8.080 -0.1238  0.2990 -0.2198
    1W        W32971  14.055   8.605   7.447  0.0769 -0.3711 -0.1099
    1W        W32972   0.175  12.963   7.873  0.2656  0.1322  0.1702
    1W        W32973   9.061  21.585   5.953 -0.2968  0.0100  0.3117
    1W        W32974  12.622  27.773   3.058 -0.1833  0.0062  0.2519
    1W        W32975   8.591  29.435   1.121  0.0575 -0.0807 -0.1167
    1W        W32976   6.018  17.441   9.020  0.0933  0.1616  0.0194
    1W        W32977   7.046  18.605   0.726  0.2579  0.3778  0.0417
    1W        W32978  18.272  26.957   6.449 -0.1816 -0.0391 -0.0155
    1W        W32979  20.380  17.678   0.610  0.1035  0.0702 -0.1570
    1W        W32980  11.999  29.471   1.332 -0.1921  0.1439  0.1090
    1W        W32981   9.983  24.457   0.189  0.2322 -0.4009 -0.5377
    1W        W32982  23.072  16.010   9.033 -0.0072 -0.2609  0.0107
    1W        W32983   9.107  28.463   1.280  0.0762 -0.3929  0.1832
    1W        W32984   9.326   0.265   7.133  0.0230  0.0178  0.0832
    1W        W32985  27.503  27.256   3.220  0.0711  0.0074  0.1449
    1W        W32986  26.619  19.985   0.137  0.1461  0.0379  0.1428
    1W        W32987  28.727  10.523   0.664  0.0717  0.2914  0.0195
    1W        W32988  26.047  24.519   8.380  0.0483  0.0315  0.0803
    1W        W32989  15.809  27.841   8.963 -0.2638 -0.0706  0.1087
    1W        W32990  15.926  21.047   1.961  0.2050  0.2920 -0.1812
    1W        W32991  24.898   5.040   7.754 -0.0836  0.1939  0.0876
    1W        W32992   1.325  21.421   9.036 -0.0376 -0.0501  0.0997
    1W        W32993  11.838   6.196   2.577 -0.1979  0.1668  0.1294
    1W        W32994  27.454  26.521   0.440 -0.2938 -0.1268 -0.1876
    1W        W32995  10.277  28.470   2.380 -0.2901  0.4172 -0.0463
    1W        W32996  29.723   5.042   8.026 -0.0767  0.1295  0.0384
    1W        W32997  18.182   1.381   1.220  0.1696 -0.2444 -0.0853
    1W        W32998   6.965  14.808   6.434  0.2606  0.0775  0.2692
    1W        W32999  21.365   0.501   8.754  0.1071 -0.0996 -0.0274
    1W        W33000   5.371  24.494   0.007  0.1334 -0.0310 -0.2774
    1W        W33001  16.049  13.728   8.227  0.0312  0.2687  0.1274
    1W        W33002   3.441  21.770   8.625  0.1544 -0.0998 -0.3969
    1W        W33003  22.155  25.721   8.540 -0.1007 -0.1597  0.0995
    1W        W33004   5.125  16.155   1.371 -0.2952  0.2263  0.0823
    1W        W33005  23.399   6.022   7.826 -0.2521  0.0396 -0.0945
    1W        W33006  28.961   7.637   2.283  0.2811  0.3970 -0.1321
    1W        W33007  12.469  19.203   6.961 -0.1338 -0.1302  0.1170
    1W        W33008  28.723  11.828   7.136  0.1174 -0.1157 -0.0118
    1W        W33009  24.432   9.201   8.860  0.4237  0.1479 -0.0799
    1W        W33010  30.148   5.171   7.788 -0.2010  0.0351  0.2124
    1W        W33011  14.568  20.122   1.102  0.0161 -0.1222  0.1324
    1W        W33012  27.411  20.859   7.377  0.0396  0.0377 -0.1285
    1W        W33013  27.984  11.785   1.356  0.0240  0.0296 -0.1195
    1W        W33014  21.498  22.299   6.867 -0.1299  0.0241 -0.2536
    1W        W33015  18.405  21.226   1.728 -0.0849  0.2263 -0.1594
    1W        W33016  16.932  17.461   8.926  0.0328  0.3933 -0.3048
    1W        W33017  15.252   1.927   8.296 -0.2265  0.1993  0.2543
    1W        W33018  11.158  17.479   0.038 -0.0704  0.2056 -0.0084
    1W        W33019  22.627   4.446   0.586  0.0900 -0.0155  0.3518
    1W        W33020  29.405  21.571   0.128 -0.1481  0.1777 -0.1540
    1W        W33021  18.679   7.609   9.254 -0.0053  0.3254 -0.4786
    1W        W33022  13.738   9.178   8.232  0.0207 -0.1780  0.1016
    1W        W33023  18.862  24.578   8.875  0.2513 -0.0426  0.1409
    1W        W33024  19.308   1.462   0.764 -0.3095  0.1880  0.0691
    1W        W33025  19.712  20.107   0.487  0.0866 -0.2978  0.0574
    1W        W33026  26.236  22.966   7.588 -0.1787  0.0207  0.1251
    1W        W33027   0.550  12.124   7.645 -0.0091  0.0529  0.1076
    1W        W33028  22.124   2.032   1.340  0.0907  0.0007 -0.0484
    1W        W33029  17.236   2.944   8.597 -0.0784 -0.0832 -0.1367
    1W        W33030  12.149  11.505   9.067 -0.0097  0.4130 -0.0296
    1W        W33031  12.642  26.038   1.888 -0.3240  0.1661 -0.0912
    1W        W33032  27.781   5.048   3.039  0.0959 -0.0788  0.1143
    1W        W33033  17.467   0.864   6.881 -0.1955  0.1720 -0.1078
    1W        W33034  15.625   1.218   7.114  0.1238  0.0111  0.1009
    1W        W33035  26.368   5.767   0.648 -0.1959  0.2613 -0.2401
    1W        W33036   4.099  23.486   9.273 -0.5178  0.0679 -0.0755
    1W        W33037  10.917  20.041   9.167 -0.0250  0.0064 -0.1375
    1W        W33038  18.448   1.860   6.865 -0.4313  0.1763  0.1532
    1W        W33039   0.847  21.835   2.085  0.4358 -0.2351  0.0640
    1W        W33040   9.244  14.945   0.628  0.0155 -0.2411 -0.0487
    1W        W33041  24.531   3.763   2.651  0.0793  0.4673  0.1604
    1W        W33042  12.645  29.042   7.037  0.0730  0.0297 -0.0408
    1W        W33043   4.012  17.798   8.709  0.1915  0.2157  0.0134
    1W        W33044   0.523   0.651   2.226 -0.0436  0.0411  0.1626
    1W        W33045  17.937   8.776   1.861 -0.0306  0.1603  0.1281
    1W        W33046  29.031  28.577   1.681 -0.0203 -0.0997  0.0774
    1W        W33047  25.686  28.988   8.134  0.1740 -0.2187 -0.1562
    1W        W33048  12.960   8.938   2.983  0.0549  0.3077 -0.1318
    1W        W33049  14.142  28.764   1.930  0.1111 -0.0463  0.0211
    1W        W33050  27.216   7.147   1.632 -0.0618 -0.1387 -0.0973
    1W        W33051  20.476   3.993   7.388  0.0074 -0.0175 -0.2684
    1W        W33052  16.047   7.380   0.428 -0.3550  0.1591  0.2796
    1W        W33053  16.076  29.543   6.888  0.2821 -0.1432  0.2516
    1W        W33054  10.446   2.428   7.257  0.1107 -0.2968  0.1431
    1W        W33055  11.058   1.061   1.284  0.1756 -0.2677  0.0381
    1W        W33056  11.152  10.425   6.685  0.2001 -0.0712  0.0518
    1W        W33057  23.386  28.038   7.605  0.0079 -0.1260  0.1342
    1W        W33058  10.194  13.777   1.536  0.0350  0.0456  0.1577
    1W        W33059  13.223  11.316   0.611 -0.4694  0.1288  0.1558
    1W        W33060  16.242  26.252   2.307  0.1511  0.0603 -0.0166
    1W        W33061   7.695  13.536   8.769  0.1433  0.1848 -0.3154
    1W        W33062  22.410  19.664   6.088  0.1927 -0.1371 -0.2528
    1W        W33063  15.054   4.176   1.503  0.0544 -0.1051 -0.0178
    1W        W33064   0.977   9.496   7.200  0.0071 -0.4577 -0.0959
    1W        W33065   1.525  15.807   9.034 -0.1879 -0.1490 -0.3746
    1W        W33066  27.851   5.769   9.169  0.4947  0.0794 -0.0119
    1W        W33067   6.700   1.905   2.874  0.2515 -0.0470 -0.0118
    1W        W33068  22.790  27.061   2.048 -0.1020 -0.0103 -0.1676
    1W        W33069  15.968   7.850   1.130  0.2383  0.3439 -0.0395
    1W        W33070  26.503  21.929   7.266 -0.2522  0.0748 -0.1554
    1W        W33071   4.147  17.462   8.071 -0.4681 -0.2071  0.1424
    1W        W33072   2.510  21.953   1.547 -0.0749 -0.1466 -0.0958
    1W        W33073  26.676  29.641   0.181 -0.0451 -0.2272  0.0432
    1W        W33074  13.420  15.533   2.197 -0.1829 -0.0228  0.1414
    1W        W33075  10.649  30.265   9.256  0.1610  0.1960 -0.0379
    1W        W33076  29.779  10.291   7.378 -0.1359 -0.1280 -0.2418
    1W        W33077   5.031   9.981   6.890  0.1882 -0.0546 -0.0913
    1W        W33078  19.850  14.311   7.217  0.0183 -0.3733  0.0198
    1W        W33079  17.344  25.811   7.453 -0.0426  0.0921  0.2901
    1W        W33080  23.457   3.997   8.387 -0.3475 -0.0599 -0.0254
    1W        W33081  14.418  27.103   2.288  0.0443 -0.0365 -0.0230
    1W        W33082  18.712  24.513   0.416 -0.1921  0.0054 -0.1388
    1W        W33083   6.478   2.215   9.008 -0.1496 -0.0384  0.1831
    1W        W33084   2.619  23.817   7.569 -0.2080  0.0577 -0.0751
    1W        W33085   2.806  19.781   8.022  0.1554  0.0795  0.1229
    1W        W33086  24.070   7.442   0.555 -0.1073 -0.1374  0.0272
    1W        W33087  21.856  22.467   6.555  0.2052  0.1474  0.2223
    1W        W33088  22.029  17.138   1.340  0.1358 -0.0567 -0.3866
    1W        W33089   4.205   0.489   2.163 -0.0060 -0.2361  0.1793
    1W        W33090   7.854   3.259   8.228 -0.0318  0.0892 -0.0768
    1W        W33091  11.843  19.752   6.330 -0.2545  0.0013  0.0987
    1W        W33092  22.860  21.719   7.487 -0.0127 -0.2561  0.3346
    1W        W33093  10.081  16.734   2.233 -0.2101 -0.1377 -0.3242
    1W        W33094   7.375  24.459   1.304 -0.0601  0.1035  0.0551
    1W        W33095   2.451   4.904   2.944 -0.3422 -0.0025  0.0623
    1W        W33096   9.820  18.027   1.451 -0.1855 -0.2305  0.0078
    1W        W33097  19.824  23.298   8.653 -0.0520 -0.1005  0.1443
    1W        W33098  29.288   3.030   0.104 -0.0124  0.1331  0.2402
    1W        W33099  14.720  16.229   9.024 -0.0582  0.0566 -0.1623
    1W        W33100  13.050   6.814   0.902  0.1611  0.1882 -0.1939
    1W        W33101  29.708  28.424   0.204 -0.0001  0.3141  0.1240
    1W        W33102  12.822   5.402   2.187  0.1137  0.2815  0.2068
    1W        W33103  24.216  23.623   6.729  0.0978  0.2927  0.2434
    1W        W33104   4.109  13.944   1.778  0.0576 -0.1175  0.4121
    1W        W33105   1.274  21.631   6.792  0.1173  0.1686  0.0334
    1W        W33106  16.986   3.345   8.389  0.0443  0.3963 -0.1101
    1W        W33107   3.471  15.686   1.185  0.3524 -0.0573  0.0629
    1W        W33108  21.689  24.276   8.770 -0.1218  0.0002 -0.0613
    1W        W33109   2.165   4.844   1.433 -0.1155  0.0385 -0.2659
    1W        W33110  16.666   5.308   7.272  0.1498  0.1207  0.1335
    1W        W33111  15.440  20.661   8.593 -0.1894  0.2403  0.0331
    1W        W33112  21.626   7.130   1.116 -0.1421  0.0440  0.1014
    1W        W33113   9.914   5.980   0.478  0.0250  0.1893  0.0485
    1W        W33114  13.685  23.501   9.048  0.0962  0.0786 -0.0068
    1W        W33115  17.818  17.319   7.310  0.0806  0.3582  0.0076
    1W        W33116  12.728   2.944   9.130 -0.0546  0.1032 -0.0559
    1W        W33117  19.479   6.040   2.156 -0.3208 -0.0286 -0.0096
    1W        W33118   6.023  28.629   2.549 -0.2586 -0.0071  0.0214
    1W        W33119  21.880   9.320   7.823 -0.1417 -0.1837  0.0044
    1W        W33120  11.517  20.651   7.665 -0.3972  0.0159 -0.3369
    1W        W33121  14.296   8.701   8.356 -0.1390 -0.0546 -0.1497
    1W        W33122   6.309  19.881   7.880 -0.3024 -0.5426  0.2411
    1W        W33123  26.975   8.936   6.589 -0.1185 -0.0955  0.1437
    1W        W33124   7.051  25.615   6.692  0.1149  0.0507  0.3436
    1W        W33125   9.331   9.344   8.207  0.0072 -0.1368  0.0614
    1W        W33126  21.818   8.190   6.885 -0.1782 -0.4802  0.0802
    1W        W33127  29.435  14.986   1.142  0.0739  0.0276  0.0431
    1W        W33128  29.421   1.735   8.125 -0.0879  0.0670 -0.2788
    1W        W33129   3.853   3.772   2.280  0.2612 -0.1822  0.0948
    1W        W33130  20.583   2.236   2.480 -0.2770  0.2926 -0.2962
    1W        W33131  26.353  21.926   1.566  0.0828 -0.2096  0.2029
    1W        W33132  24.619   5.074   2.480  0.3145 -0.1997  0.0385
    1W        W33133  15.289   8.904   0.845 -0.0868  0.0646  0.2538
    1W        W33134  16.729  21.856   6.349  0.2182  0.2210  0.1966
    1W        W33135  10.136  10.011   0.646 -0.0664 -0.1834 -0.0998
    1W        W33136   6.907   9.829   0.120 -0.2487  0.0250  0.0282
    1W        W33137  15.894   1.323   2.007  0.0334  0.2385  0.2136
    1W        W33138  23.852   6.168   6.591  0.1785  0.0017 -0.1450
    1W        W33139   2.037  21.176   6.804 -0.1354  0.2290  0.1339
    1W        W33140   9.422  26.518   7.174 -0.1393  0.0430 -0.2050
    1W        W33141   5.890  23.277   6.356  0.1206 -0.0522 -0.0714
    1W        W33142  26.181   2.116   3.191  0.1467 -0.1011 -0.1002
    1W        W33143  20.447  24.861   5.577  0.2681 -0.0707  0.2459
    1W        W33144  14.598  28.023   0.015  0.1698 -0.0605 -0.0092
    1W        W33145  29.306   8.957   0.797  0.0465  0.4948 -0.1311
    1W        W33146  22.766  12.307   1.250 -0.2138  0.2955 -0.1148
    1W        W33147  10.550  17.457   0.522 -0.0265 -0.1055 -0.0017
    1W        W33148  13.967  21.429   2.363 -0.2999  0.3437 -0.1831
    1W        W33149   5.236   5.770   3.286  0.1298  0.1754 -0.2198
    1W        W33150   0.549  28.067   2.269  0.0679 -0.1637 -0.0289
    1W        W33151  22.226   8.587   7.228  0.0625 -0.1768  0.0915
    1W        W33152   6.355   5.878   7.023 -0.1595  0.1563 -0.0376
    1W        W33153   0.099   1.031   2.764 -0.0459  0.0226  0.2951
    1W        W33154  30.248   6.254   8.335 -0.0890  0.1644  0.2123
    1W        W33155  21.741  28.807   2.256 -0.4380 -0.2643  0.0087
    1W        W33156   1.311   2.883   8.133 -0.0800  0.1418  0.0419
    1W        W33157  21.848  22.547   0.955  0.1913 -0.0789 -0.1915
    1W        W33158   0.494  19.953   8.425  0.2636  0.0014  0.2151
    1W        W33159  28.825  28.350   7.650 -0.1488 -0.0995 -0.3096
    1W        W33160   2.003   8.357   6.341  0.4006 -0.1383 -0.0028
    1W        W33161  18.238   1.392   6.859 -0.2032 -0.2312  0.0292
    1W        W33162   4.039   4.361   3.012 -0.3911  0.1719 -0.1223
    1W        W33163   1.534   1.333   3.742  0.1330 -0.0080  0.0761
    1W        W33164  20.047   9.750   6.887  0.2126 -0.1214 -0.1637
    1W        W33165  11.421  25.124   8.847 -0.2362 -0.0607  0.0333
    1W        W33166  16.097  14.860   6.959 -0.0836 -0.4256 -0.2794
    1W        W33167  15.733   5.049   1.594 -0.0210  0.0699 -0.0203
    1W        W33168  22.738   3.888   0.866  0.2307  0.3466 -0.1319
    1W        W33169   3.520  11.005   8.790  0.0540  0.0360 -0.1136
    1W        W33170  25.939  12.166   9.204 -0.0680  0.1060 -0.0164
    1W        W33171   4.577   5.492   1.674  0.0340  0.0569  0.2619
    1W        W33172   4.625  17.312   1.422  0.2782  0.1443  0.5105
    1W        W33173  16.447  25.342   7.485  0.1638  0.0846  0.0995
    1W        W33174  21.915  26.725   7.202  0.1977  0.2476 -0.0172
    1W        W33175  26.093  15.064   1.390 -0.1393  0.3345 -0.0941
    1W        W33176  25.972  21.631   6.332 -0.1684 -0.1061 -0.1337
    1W        W33177  10.384  20.006   6.027 -0.0922 -0.3743  0.0538
    1W        W33178  18.591  24.909   8.552  0.1743  0.1466  0.0594
    1W        W33179  22.574   5.240   2.642 -0.0630  0.0449 -0.1227
    1W        W33180   6.360   1.198   1.512  0.2119 -0.0711 -0.2326
    1W        W33181   5.555   9.582   7.585  0.2623 -0.2302 -0.2563
    1W        W33182   3.551   8.270   7.712 -0.3307  0.3167  0.0940
    1W        W33183  27.648   4.007   3.538 -0.0003 -0.1343  0.2266
    1W        W33184   3.148   4.025   7.645 -0.0920  0.0175 -0.2824
    1W        W33185  16.101  21.308   8.697  0.1915 -0.2212  0.1456
    1W        W33186  15.518   3.491   1.827 -0.0270  0.2058  0.0159
    1W        W33187   3.119  15.331   1.080 -0.1486  0.2759  0.1965
    1W        W33188  25.003   8.081   6.684 -0.0022  0.0443  0.1775
    1W        W33189   9.209   3.230   0.920 -0.1727 -0.0605  0.1185
    1W        W33190  22.628  28.848   1.230  0.1283 -0.3171 -0.0666
    1W        W33191  24.837  29.230   7.954 -0.0397 -0.1782  0.1782
    1W        W33192   9.154  21.198   0.162  0.0665  0.2898  0.1369
    1W        W33193  26.680  26.075   6.399 -0.0516 -0.1297  0.1062
    1W        W33194  17.519  15.993   8.253  0.1069  0.2726  0.2819
    1W        W33195   8.216  14.586   7.107 -0.0607  0.0961 -0.5391
    1W        W33196  15.949   2.843   7.344 -0.3026  0.0286 -0.0557
    1W        W33197  16.437  14.518   7.371 -0.0142 -0.0276  0.2348
    1W        W33198   1.753   4.978   0.391  0.0984  0.0710  0.1912
    1W        W33199  10.619  21.299   0.182 -0.0595  0.2224  0.1371
    1W        W33200  22.063  28.380   7.281 -0.1640  0.0028  0.1185
    1W        W33201  20.448  29.216   1.779 -0.0686  0.0717 -0.0130
    1W        W33202  25.003  29.010   0.999  0.2597 -0.4200 -0.4556
    1W        W33203  27.768  18.261   0.400  0.0344  0.1377  0.0059
    1W        W33204  11.303  28.696   7.479  0.1436  0.1720  0.1471
    1W        W33205   9.273  17.328   0.637 -0.0683  0.2689 -0.1026
    1W        W33206  27.752   1.451   1.692 -0.0939 -0.2419 -0.1091
    1W        W33207  24.804  11.627   0.850 -0.1146  0.4109 -0.0574
    1W        W33208  26.689  25.671   7.067 -0.0192  0.1434  0.1418
    1W        W33209   9.639  18.465   1.194  0.0276 -0.0684  0.0635
    1W        W33210  20.045   9.695   0.335  0.1582 -0.0325 -0.0624
    1W        W33211  20.145  24.370   1.175  0.1582  0.2016 -0.0628
    1W        W33212  12.348   0.371   8.534  0.0391  0.0850 -0.1682
    1W        W33213  19.918   5.618   6.603  0.0831 -0.1338  0.5337
    1W        W33214  12.571  27.255   0.411  0.1685  0.1215  0.1518
    1W        W33215  16.411  27.638   8.123 -0.2863  0.0832 -0.0283
    1W        W33216  23.003  20.529   7.045  0.3112  0.1078  0.1678
    1W        W33217   8.526  29.325   6.640  0.0023 -0.3645 -0.1289
    1W        W33218  23.266  11.715   6.709  0.1368 -0.3509  0.0725
    1W        W33219  29.092   2.661   0.312  0.0294  0.2103 -0.0146
    1W        W33220  10.442   8.310   2.443  0.1062 -0.3191 -0.1381
    1W        W33221   2.179  24.457   8.040 -0.1578 -0.0531  0.0841
    1W        W33222  17.568  16.083   9.148  0.1443  0.0324 -0.2302
    1W        W33223  23.546  12.411   7.325 -0.1937  0.2854  0.3033
    1W        W33224  19.316  19.510   6.638 -0.0562 -0.1859 -0.1901
    1W        W33225   3.548   0.143   7.743 -0.0981  0.3144 -0.1100
    1W        W33226  15.151   2.935   0.050  0.3016 -0.0003 -0.3922
    1W        W33227  12.391  10.975   8.323 -0.1749 -0.1510  0.0455
    1W        W33228   9.621  23.739   9.126  0.0765  0.0258  0.1000
    1W        W33229   9.093  24.762   0.264  0.3256  0.0904  0.0847
    1W        W33230  20.361   9.930   2.392 -0.1292 -0.1590 -0.3017
    1W        W33231  17.860  14.504   1.082 -0.0847 -0.1601 -0.1126
    1W        W33232  27.442   6.393   7.749 -0.3288 -0.2186 -0.2043
    1W        W33233   5.068  27.794   2.776 -0.0762  0.0677 -0.0280
    1W        W33234  27.744  16.580   2.072 -0.0390  0.0340  0.0838
    1W        W33235   2.724   3.691   8.838 -0.1935  0.1489  0.1603
    1W        W33236   9.658   8.579   7.143 -0.0093 -0.2066  0.1656
    1W        W33237  21.609   7.325   6.849 -0.1011 -0.3417  0.0449
    1W        W33238  14.716  15.551   2.892 -0.0169 -0.2890  0.3565
    1W        W33239   9.823  25.500   8.765 -0.3181  0.1827 -0.0885
    1W        W33240  27.910  26.248   1.069 -0.3283 -0.1936  0.0562
    1W        W33241  18.917   1.978   1.500 -0.0402 -0.4027  0.2013
    1W        W33242  12.954  22.537   0.483  0.1266 -0.0976  0.2283
    1W        W33243  11.234   9.884   2.208 -0.0320 -0.0192 -0.2288
    1W        W33244  20.103  19.022   1.150  0.2456  0.2217 -0.1452
    1W        W33245  23.196   5.842   8.252 -0.0700  0.1686  0.4412
    1W        W33246  14.863  13.531   0.466 -0.0209 -0.1383  0.0775
    1W        W33247  25.537  22.013   2.195 -0.1646  0.1703  0.0899
    1W        W33248  28.469  25.490   6.348  0.1693  0.0526  0.2332
    1W        W33249  22.380  14.610   0.224  0.0094  0.0747 -0.1478
    1W        W33250  18.832  10.214   6.624 -0.1416 -0.1478  0.0065
    1W        W33251  11.019  16.279   8.013  0.2189 -0.2009 -0.1114
    1W        W33252  22.725   0.562   2.040  0.1088  0.1067  0.3329
    1W        W33253  24.870  11.702   8.915  0.2107  0.3072 -0.2753
    1W        W33254  10.236  23.610   6.847 -0.0831 -0.0307  0.2745
    1W        W33255  12.913  20.580   6.679  0.2211 -0.2180 -0.1898
    1W        W33256  14.985  12.582   8.253  0.0341  0.2420 -0.1288
    1W        W33257  11.479  15.515   1.189  0.0504  0.0098 -0.3885
    1W        W33258  25.821  15.928   8.805  0.0593 -0.1351 -0.2502
    1W        W33259  13.560  25.327   7.675  0.0448  0.0256  0.1482
    1W        W33260  23.542  13.983   1.973  0.1381 -0.2207 -0.2553
    1W        W33261  27.019  11.823   8.508 -0.1632  0.0227  0.0914
    1W        W33262  19.221  16.622   8.145 -0.0861  0.1058 -0.1084
    1W        W33263  24.146  24.607   0.784  0.1528  0.2298 -0.1880
    1W        W33264  18.890  14.112   1.329 -0.3635 -0.1646  0.1361
    1W        W33265   2.892   7.134   1.669 -0.0862 -0.1509 -0.1392
    1W        W33266  10.503  29.904   7.512  0.0342 -0.1340 -0.0767
    1W        W33267   2.852  13.830   1.204  0.3368  0.2719  0.2899
    1W        W33268   3.305  27.697   2.378  0.0605 -0.0223 -0.1850
    1W        W33269   1.706  16.678   1.205 -0.1116  0.0687  0.3025
    1W        W33270  17.419  28.616   1.044  0.1899  0.2045  0.1779
    1W        W33271  29.949  24.142   8.628 -0.0862  0.1270  0.1956
    1W        W33272  17.894  24.735   8.895  0.0759  0.0330 -0.1697
    1W        W33273   6.407  12.922   6.450  0.0668 -0.0473 -0.0386
    1W        W33274  20.526  26.690   0.525  0.2832  0.2139  0.1751
    1W        W33275   9.796   0.698   2.896  0.3892  0.3118 -0.3318
    1W        W33276  29.028  29.703   0.517  0.1250 -0.0407 -0.1601
    1W        W33277  29.661  21.639   1.275 -0.4579  0.0076  0.1613
    1W        W33278  21.062  24.990   2.501 -0.3906 -0.2316  0.0458
    1W        W33279  12.466  18.950   8.416  0.1784 -0.1369  0.3200
    1W        W33280  21.571  22.260   7.376 -0.3021  0.0544  0.0048
    1W        W33281  13.871  10.745   0.340 -0.2971 -0.0100  0.1388
    1W        W33282   8.674  26.982   7.713 -0.2342  0.1271 -0.3217
    1W        W33283  21.315   7.862   8.693 -0.0444 -0.1261  0.1952
    1W        W33284  11.044  13.309   8.854  0.1892 -0.1793  0.2464
    1W        W33285  15.218  16.978   1.762 -0.4195 -0.1343 -0.0652
    1W        W33286  27.326   4.504   4.092 -0.0082 -0.0104  0.2330
    1W        W33287  22.515   0.480   0.754 -0.0354  0.0839 -0.3186
    1W        W33288  20.272  28.352   1.872 -0.0784 -0.0983  0.3079
    1W        W33289  17.374  22.121   1.012 -0.0312  0.0762  0.2624
    1W        W33290  14.191  13.667   1.853 -0.0138 -0.0880  0.2256
    1W        W33291   6.702   3.543   1.621 -0.0154  0.3142 -0.3073
    1W        W33292  10.633  29.075   3.699  0.0479 -0.5122 -0.0715
    1W        W33293  19.744  11.757   6.769 -0.1729 -0.3297 -0.1289
    1W        W33294  29.785  21.300   6.996  0.0001 -0.1293 -0.3514
    1W        W33295  16.112   1.105   7.169 -0.3351  0.2727  0.0206
    1W        W33296  12.232  26.317   9.241 -0.1983 -0.2424 -0.2799
    1W        W33297  11.366   0.684   1.431 -0.1281 -0.1729  0.2642
    1W        W33298  27.777  20.568   1.288  0.2180  0.2353  0.0147
    1W        W33299  27.703  24.433   8.711  0.0470 -0.0290 -0.1093
    1W        W33300   8.088  23.442   1.552 -0.0989 -0.2756 -0.0300
    1W        W33301  11.511  14.337   7.320 -0.0821 -0.0920  0.0308
    1W        W33302  22.668   2.922   8.254  0.2051  0.0366 -0.0332
    1W        W33303  12.478  13.941   2.983 -0.0815 -0.0143 -0.1893
    1W        W33304  26.657   7.555   2.980  0.0373 -0.2923 -0.1347
    1W        W33305   1.105   8.361   0.502  0.1421 -0.1802  0.0606
    1W        W33306  21.006   0.640   1.214  0.4828  0.0274  0.0475
    1W        W33307  19.166  26.158   0.156  0.0472  0.0982 -0.0841
    1W        W33308  21.573  20.570   1.548 -0.0744  0.2372  0.0664
    1W        W33309   0.847   0.583   0.676  0.1843  0.1272  0.0807
    1W        W33310   4.139  30.075   0.426  0.2120 -0.1174  0.1195
    1W        W33311   7.373  24.963   1.264  0.2311  0.2730  0.0917
    1W        W33312  11.502   2.787   7.171  0.0139 -0.0504 -0.1217
    1W        W33313   8.659  21.941   6.074  0.0989  0.0548 -0.2643
    1W        W33314  21.594  20.532   8.346 -0.1053 -0.1940  0.1985
    1W        W33315  22.214   0.990   8.441  0.2375 -0.1868 -0.1487
    1W        W33316  24.458  11.626   6.913  0.0265  0.0910  0.0555
    1W        W33317  12.007   8.665   0.488  0.0351 -0.0445  0.3547
    1W        W33318  25.928  18.482   7.756 -0.0699 -0.1188  0.1254
    1W        W33319  17.874   2.053   1.961  0.0673 -0.0839 -0.0362
    1W        W33320  16.504   2.144   7.125  0.0978  0.0119 -0.2240
    1W        W33321  23.873  16.013   6.476  0.1962  0.0446  0.1643
    1W        W33322  13.450  16.453   0.553  0.0333  0.0422  0.1785
    1W        W33323  13.367  12.551   0.226 -0.1113  0.1715  0.0850
    1W        W33324  18.406   9.331   1.809 -0.0464 -0.0791  0.1648
    1W        W33325  25.837  27.258   3.059  0.2989 -0.1612 -0.0427
    1W        W33326  22.275  24.263   7.940  0.1697 -0.0895 -0.0057
    1W        W33327  24.837  25.935   8.278 -0.3140 -0.0939  0.2616
    1W        W33328  13.038   8.036   2.714 -0.1409  0.1701 -0.3120
    1W        W33329  18.705  18.712   6.812 -0.1288  0.0949  0.0905
    1W        W33330  25.320  10.852   1.294 -0.0083  0.0987 -0.2643
    1W        W33331  17.665   2.586   1.999  0.1666  0.2001 -0.0942
    1W        W33332   7.670  21.521   7.948 -0.2722  0.2844 -0.0267
    1W        W33333   8.620  17.854   7.087  0.2662  0.1131 -0.2384
    1W        W33334   9.307  12.820   0.495 -0.2524 -0.1160 -0.1997
    1W        W33335  11.686  17.848   6.309 -0.1222  0.0192  0.1475
    1W        W33336  21.171  20.069   0.269 -0.0651 -0.0095  0.0432
    1W        W33337  27.458  18.212   7.991  0.2537 -0.2473  0.2312
    1W        W33338   2.529   4.038   2.654 -0.0306 -0.2718  0.0292
    1W        W33339  16.557  13.080   1.704  0.1337 -0.0275 -0.0087
    1W        W33340   5.797  22.913   1.471 -0.0829 -0.0124  0.0159
    1W        W33341  16.707   7.969   0.694  0.0538  0.0476 -0.0212
    1W        W33342   9.351   5.960   1.420 -0.0262 -0.0154  0.0330
    1W        W33343   2.825  25.528   2.046  0.1322 -0.1425 -0.2184
    1W        W33344  28.085   7.046   8.383 -0.0887 -0.3492  0.1028
    1W        W33345  16.635  27.641   2.277 -0.1144  0.1937 -0.1951
    1W        W33346   8.247   4.279   7.066  0.0855  0.2625  0.2973
    1W        W33347   5.381   1.099   7.551 -0.3523  0.1003  0.1518
    1W        W33348  24.222  12.428   0.399  0.2257  0.4447 -0.4687
    1W        W33349   4.922  11.458   1.310  0.0692 -0.3173 -0.2048
    1W        W33350  17.780  15.220   1.135 -0.0654  0.0646  0.0445
    1W        W33351  14.153   3.374   7.502  0.0579  0.4759  0.1389
    1W        W33352  14.471   0.582   6.700 -0.0975 -0.1569  0.1490
    1W        W33353  25.231   3.094   3.277  0.4229 -0.1165  0.1028
    1W        W33354  25.878   7.836   9.009 -0.1262  0.4155 -0.1056
    1W        W33355  21.310  21.399   8.137 -0.2998 -0.0986 -0.2116
    1W        W33356  18.090   0.764   2.036 -0.0993  0.0767  0.5673
    1W        W33357  26.278   1.343   7.366 -0.0777 -0.3209 -0.0874
    1W        W33358  13.379  18.935   7.926 -0.1242  0.0162  0.3373
    1W        W33359  11.954   5.022   8.467 -0.0160 -0.1127  0.0469
    1W        W33360   1.564  13.011   0.790  0.1388  0.2707  0.0172
    1W        W33361  26.507  16.011   1.403  0.0345 -0.0154 -0.0900
    1W        W33362  30.335  13.645   8.251  0.1587  0.0721 -0.1188
    1W        W33363  15.919  14.807   3.824  0.3422 -0.2037 -0.0597
    1W        W33364   9.597   0.386   8.557  0.0336 -0.0432 -0.0192
    1W        W33365   4.886  11.149   7.159  0.0620  0.0496 -0.1479
    1W        W33366   0.303   2.171   7.342 -0.1163 -0.2349  0.0325
    1W        W33367   9.299  20.457   8.357  0.0074  0.0980 -0.1063
    1W        W33368   8.941  11.827   7.671  0.1561 -0.1001 -0.1632
    1W        W33369  19.053  27.172   6.448  0.1164  0.2913 -0.1454
    1W        W33370  11.740  27.333   0.039  0.2392 -0.0219 -0.2021
    1W        W33371  13.017  13.230   3.645  0.0892  0.1656 -0.1396
    1W        W33372  11.279   8.154   6.456 -0.5409 -0.1077 -0.1802
    1W        W33373   2.428   7.817   8.119 -0.2582  0.1576  0.1726
    1W        W33374  13.306  26.341   0.433  0.2751 -0.0798  0.2013
    1W        W33375  12.868   9.637   9.258  0.2362 -0.0795  0.1380
    1W        W33376  22.466   4.888   0.846 -0.2907  0.0422  0.2785
    1W        W33377   4.617  25.971   8.522  0.2013 -0.1402 -0.0679
    1W        W33378  23.588   5.992   1.574  0.5229  0.3608  0.0792
    1W        W33379   7.225  11.778   1.963 -0.0594 -0.0221  0.1195
    1W        W33380   8.626  27.860   7.154  0.0147  0.3489  0.0123
    1W        W33381  21.372   2.788   7.520  0.0847  0.2140  0.1362
    1W        W33382   1.526   4.600   8.923 -0.0486 -0.2231  0.0787
    1W        W33383  17.642  14.574   8.161 -0.1216  0.1267 -0.1296
    1W        W33384   8.018  12.608   2.527  0.1860 -0.0794  0.1864
    1W        W33385  18.461   5.188   7.784 -0.2767  0.0656 -0.0454
    1W        W33386  29.074  15.338   7.855  0.0575  0.1037  0.1524
    1W        W33387  18.940   6.870   2.062  0.0228 -0.0371 -0.1501
    1W        W33388   1.011  12.364   1.689  0.0698  0.0546  0.1741
    1W        W33389   9.600   8.238   0.766 -0.3133  0.4644 -0.0919
    1W        W33390  19.474  28.381   2.221  0.0209  0.1780 -0.3071
    1W        W33391  28.696  30.074   3.757 -0.1647 -0.0170  0.2240
    1W        W33392  26.130   0.646   8.840  0.0133  0.0801  0.4214
    1W        W33393   5.394   4.708   8.925  0.1704  0.0338  0.1372
    1W        W33394  25.753   3.733   2.954  0.0642  0.0060  0.0579
    1W        W33395   7.073  29.923   2.575 -0.1831 -0.2374  0.0623
    1W        W33396  22.677  13.953   7.502 -0.3603 -0.0542  0.2978
    1W        W33397  27.868  24.897   8.498 -0.0969  0.1349  0.1439
    1W        W33398   4.114  12.506   7.520 -0.0773  0.0305 -0.1295
    1W        W33399  22.961  14.444   2.198 -0.0767  0.0669  0.0810
    1W        W33400   1.381  11.206   7.812 -0.1143  0.3367 -0.3005
    1W        W33401  27.649  15.325   6.278 -0.1602 -0.1281  0.0205
    1W        W33402  10.437  26.735   0.508 -0.2031 -0.2675  0.1769
    1W        W33403   4.530  14.747   7.426  0.0631 -0.1025 -0.1806
    1W        W33404  27.362   8.738   7.706 -0.2412 -0.0660  0.3786
    1W        W33405   2.256  20.217   6.784 -0.2108  0.0252  0.0220
    1W        W33406  16.469  14.769   0.486 -0.0243  0.0895 -0.0746
    1W        W33407   0.497  13.411   6.330  0.1691  0.0454  0.0431
    1W        W33408  30.067  20.165   7.355 -0.0525 -0.1157  0.1361
    1W        W33409  28.879  14.284   9.227 -0.0046 -0.0111 -0.0691
    1W        W33410  25.974  28.288   2.133  0.0760  0.3435  0.1430
    1W        W33411   4.842  26.295   8.047 -0.2197 -0.2302  0.1221
    1W        W33412  11.848  22.601   8.742 -0.0285  0.1158  0.1874
    1W        W33413  19.498  12.276   0.308  0.6269 -0.2673 -0.0297
    1W        W33414  16.942  19.588   1.145  0.2943  0.1848 -0.0714
    1W        W33415  15.851   7.925   1.588  0.0346 -0.0780  0.0267
    1W        W33416  15.103   9.409   1.076  0.0546 -0.0554  0.0642
    1W        W33417   8.319  14.607   8.084  0.2808 -0.0447  0.2352
    1W        W33418  16.068   2.977   8.704  0.0417  0.1850 -0.0090
    1W        W33419  14.435  15.852   9.050  0.0980  0.0499 -0.2160
    1W        W33420   0.197   3.820   8.194  0.1793 -0.1287 -0.2786
    1W        W33421   1.019   3.915   3.589 -0.0595 -0.0212 -0.0051
    1W        W33422   2.721   7.653   0.443 -0.0395  0.0150 -0.2230
    1W        W33423  16.778  22.226   8.050 -0.0634  0.0127  0.0752
    1W        W33424   7.966  14.335   1.164 -0.0296 -0.0115  0.1173
    1W        W33425  26.299  22.927   6.322 -0.1576  0.0166 -0.0520
    1W        W33426  25.503   3.051   1.086  0.3603  0.0400 -0.1687
    1W        W33427  21.818  25.559   0.554 -0.1415 -0.1358 -0.0905
    1W        W33428  29.286  25.045   2.133  0.1461 -0.1140 -0.0639
    1W        W33429  23.232  23.110   2.321  0.0674 -0.0258 -0.1805
    1W        W33430  18.081  14.925   2.710 -0.1137 -0.2279  0.1443
    1W        W33431   9.133  20.892   5.786 -0.0528  0.2537  0.0871
    1W        W33432   9.499  24.242   0.036  0.1193 -0.0584 -0.0979
    1W        W33433  29.560  27.030   7.736 -0.2011 -0.1461 -0.0310
    1W        W33434  12.624  17.816   8.787 -0.0040  0.0063 -0.3598
    1W        W33435  23.063   6.676   6.602 -0.0595  0.1809  0.0348
    1W        W33436   7.478  21.900   8.200  0.1885  0.1559 -0.0266
    1W        W33437   5.448   5.647   8.622 -0.1313  0.0600 -0.0369
    1W        W33438  15.156  13.377   1.654 -0.0853  0.0712  0.0695
    1W        W33439  15.209  26.243   5.874 -0.0083 -0.0494  0.0071
    1W        W33440  11.413  17.762   6.747  0.0196 -0.1216  0.0051
    1W        W33441  22.435  23.494   6.891  0.2437  0.1141  0.1646
    1W        W33442  28.778   1.866   7.292  0.0436 -0.2454 -0.1769
    1W        W33443  23.790   6.703   3.114 -0.1851  0.2649  0.1005
    1W        W33444  25.492  28.155   2.279  0.0251  0.0656 -0.1658
    1W        W33445  24.220   0.790   8.976 -0.0841 -0.1334 -0.2381
    1W        W33446  25.679  10.365   1.164 -0.1145 -0.2537 -0.0734
    1W        W33447  10.664  13.100   9.145  0.1698  0.3418 -0.2352
    1W        W33448  22.519  16.205   1.844  0.1898 -0.3373 -0.1989
    1W        W33449  18.809  29.720   9.212 -0.2798 -0.0599 -0.2346
    1W        W33450  29.210   1.080   8.242  0.2337  0.1023 -0.1524
    1W        W33451  25.275  28.587   2.276  0.2077 -0.0433 -0.1067
    1W        W33452  22.007   3.523   1.595  0.2912 -0.2063  0.0777
    1W        W33453   6.300  18.687   1.252 -0.0820  0.0528  0.1637
    1W        W33454  22.861  19.379   1.261 -0.3035 -0.0194 -0.1578
    1W        W33455  21.435  12.642   7.784 -0.1315  0.1170  0.1557
    1W        W33456  24.312  21.880   8.956 -0.1513 -0.1704  0.1181
    1W        W33457  26.386  12.471   7.587  0.0045 -0.0290 -0.1298
    1W        W33458  19.934  20.301   8.783  0.2024  0.2079 -0.2410
    1W        W33459  18.692  16.931   6.746  0.3666  0.0466  0.1590
    1W        W33460  12.245  21.799   0.970 -0.0665  0.2103 -0.0421
    1W        W33461  28.014   8.385   0.056  0.1086 -0.1409  0.0003
    1W        W33462  25.549   9.916   1.095 -0.2072  0.0055 -0.0795
    1W        W33463   9.053  26.770   0.033 -0.0484 -0.0010 -0.2269
    1W        W33464  14.869   9.642   0.755  0.2324 -0.2513 -0.0360
    1W        W33465  18.585  14.011   0.951  0.0260 -0.1713  0.1269
    1W        W33466  14.177  11.786   8.127 -0.1326  0.1194 -0.1148
    1W        W33467   9.894  10.870   9.220 -0.1631  0.0629 -0.2503
    1W        W33468  13.341   6.782   0.467  0.1755 -0.0633  0.0625
    1W        W33469  16.462  24.077   7.831 -0.0116  0.1686 -0.0357
    1W        W33470  21.636   1.101   7.553 -0.2437 -0.1315  0.1640
    1W        W33471  10.852  15.232   6.839  0.0299  0.3563 -0.0904
    1W        W33472  14.343   2.523   8.407 -0.1415  0.0675  0.5173
    1W        W33473   8.417  22.288   1.804 -0.0723  0.2927  0.0808
    1W        W33474  26.050  13.226   1.247 -0.5141 -0.0888 -0.2677
    1W        W33475  14.619  20.032   0.040 -0.2006  0.3725 -0.0748
    1W        W33476  15.399  13.603   2.799 -0.0067 -0.0262  0.1887
    1W        W33477  29.063  29.743   2.457 -0.1059  0.1906 -0.0828
    1W        W33478  18.491   8.636   7.502  0.0820  0.2063  0.1607
    1W        W33479   6.083  13.572   0.945  0.0387  0.0368  0.0614
    1W        W33480  29.317   9.019   9.008 -0.0047 -0.2473  0.1051
    1W        W33481   4.795   6.358   0.812 -0.2159  0.1004  0.1693
    1W        W33482   1.501   4.844   8.470 -0.0505 -0.1275  0.1486
    1W        W33483  15.199   0.991   7.209 -0.0814  0.1569  0.0676
    1W        W33484   3.223  22.709   6.968 -0.1512  0.2096  0.1612
    1W        W33485  24.089  16.839   7.064  0.0827  0.1071  0.1195
    1W        W33486  21.013  11.625   5.895  0.2917 -0.3851  0.0215
    1W        W33487  11.377  17.151   0.482 -0.0624  0.0043 -0.0597
    1W        W33488   5.302  28.185   8.031  0.2966  0.3046 -0.1741
    1W        W33489  13.789   4.682   8.987 -0.0425  0.0959 -0.2960
    1W        W33490  29.829   2.446   7.699  0.0648 -0.1869  0.1922
    1W        W33491  20.171  27.181   7.020 -0.0402  0.3180 -0.0133
    1W        W33492  19.885   1.911   0.245  0.0094  0.1746  0.1080
    1W        W33493  25.676   7.522   2.196 -0.0508 -0.1122 -0.0349
    1W        W33494   9.190   9.996   0.208 -0.0447  0.0149  0.0842
    1W        W33495   3.211   8.952   1.982 -0.2821  0.0004 -0.1614
    1W        W33496  29.841  29.541   7.452 -0.0784  0.1342 -0.4495
    1W        W33497  11.287  23.808   6.463  0.4299  0.0918  0.1239
    1W        W33498  24.841  19.608   7.227  0.1879  0.1198  0.0928
    1W        W33499   3.751   4.638   1.029  0.0908  0.2523 -0.0501
    1W        W33500   9.328   4.508   0.179 -0.0471  0.2430  0.0358
    1W        W33501   3.907   7.271   8.906  0.0901 -0.1074 -0.1165
    1W        W33502  21.543   0.541   0.441 -0.1393  0.1049  0.2897
    1W        W33503  12.905  29.153   7.724  0.2587  0.0944 -0.2043
    1W        W33504   7.851   0.546   8.453 -0.0593  0.0226  0.0100
    1W        W33505  17.768   9.140   1.052  0.0076  0.1132  0.1065
    1W        W33506  19.294  22.134   9.032 -0.1101  0.1555  0.0493
    1W        W33507   6.747  17.189   8.108 -0.0484  0.0303 -0.0090
    1W        W33508  10.448  27.914   8.246  0.0536  0.1197 -0.1762
    1W        W33509  19.129   5.125   1.418 -0.0345 -0.1211 -0.0682
    1W        W33510  29.803   5.575   8.697  0.1875 -0.0765  0.2354
    1W        W33511  28.820  21.393   8.115  0.2266  0.2085 -0.1177
    1W        W33512   3.118  20.650   0.778 -0.1650 -0.0839  0.1053
    1W        W33513  22.282   8.607   5.307 -0.0919 -0.3054  0.1361
    1W        W33514  18.446   8.399   0.664  0.0205 -0.0946 -0.0603
    1W        W33515   5.933  20.609   7.201  0.0267 -0.1155  0.1888
    1W        W33516   4.943   4.611   2.668 -0.0054  0.1734  0.0895
    1W        W33517  23.651  16.724   7.272 -0.0511  0.0156  0.2953
    1W        W33518  21.939  15.351   2.583  0.1598 -0.1330  0.0461
    1W        W33519  28.383  12.351   7.845 -0.1819  0.1608 -0.0640
    1W        W33520  25.352  27.877   2.756 -0.2725  0.0918 -0.0261
    1W        W33521   4.250  18.812   6.762 -0.1292 -0.3208 -0.1504
    1W        W33522  17.112  14.029   2.055 -0.0613 -0.1161 -0.0904
    1W        W33523   9.934  27.291   3.215  0.3175 -0.4718 -0.2945
    1W        W33524  27.509  10.708   7.241 -0.3503 -0.0881 -0.0471
    1W        W33525  13.674  22.358   7.236 -0.4282  0.1173 -0.1321
    1W        W33526   7.078  14.371   0.621 -0.3122 -0.0752  0.1071
    1W        W33527  11.654  13.892   2.499  0.1259  0.1868 -0.0043
    1W        W33528  13.201   2.752   9.142  0.0954 -0.0603 -0.2341
    1W        W33529  14.107  28.631   1.440 -0.0658  0.0680  0.2521
    1W        W33530   2.212   7.635   0.629 -0.2555 -0.1356 -0.1097
    1W        W33531  11.629   8.393   8.280 -0.1110 -0.0381 -0.0898
    1W        W33532  26.411  26.010   0.980 -0.0771  0.0511 -0.0661
    1W        W33533   9.852   3.913   2.784 -0.0387  0.0807  0.1500
    1W        W33534  19.808  21.061   8.449 -0.0127 -0.0464  0.2309
    1W        W33535  29.280   7.448   0.432 -0.1389  0.1431 -0.0942
    1W        W33536  21.546  27.166   1.190 -0.1832 -0.3284 -0.3839
    1W        W33537  14.632  27.693   2.935 -0.2598 -0.3068  0.1200
    1W        W33538   2.070  14.277   7.437  0.2759 -0.4329 -0.1020
    1W        W33539   2.281  12.111   0.503  0.2409 -0.1265 -0.0878
    1W        W33540   8.807  20.141   8.275 -0.1873 -0.1015 -0.1154
    1W        W33541  15.550  18.887   7.285  0.1529  0.0401  0.1666
    1W        W33542  23.218  23.653   7.203 -0.1096 -0.0457 -0.1542
    1W        W33543  18.177  10.742   6.728  0.0322 -0.0273  0.0385
    1W        W33544  16.199  15.720   2.365 -0.0683  0.0157 -0.0451
    1W        W33545  13.486   4.793   0.927 -0.0695  0.2458  0.0166
    1W        W33546  29.754  26.116   0.612  0.0546  0.1628 -0.1024
    1W        W33547  26.908   4.632   0.624  0.1152 -0.2713 -0.0345
    1W        W33548  23.817  28.544   2.829 -0.5107 -0.2745 -0.2166
    1W        W33549  11.383   9.828   9.213 -0.0583 -0.0713  0.1333
    1W        W33550  25.696  18.508   8.608  0.3515  0.0230  0.0709
    1W        W33551  14.565  12.904   2.069  0.2817 -0.0489 -0.4127
    1W        W33552  12.252  12.206   2.790 -0.2053 -0.0257 -0.0815
    1W        W33553   8.714  13.893   1.782  0.0264 -0.2621 -0.2358
    1W        W33554  15.170  11.424   0.255  0.1716  0.0115 -0.1846
    1W        W33555   8.809  14.285   6.572  0.0728  0.2496 -0.0500
    1W        W33556   8.671  16.970   6.774  0.3565  0.2266  0.0397
    1W        W33557   3.420  19.126   7.974 -0.1489  0.1195 -0.1685
    1W        W33558  22.170  30.020   1.055  0.1949  0.1892  0.1654
    1W        W33559  11.751   0.110   7.012 -0.0881  0.1290 -0.3722
    1W        W33560  17.101   7.104   7.101  0.1004  0.0835 -0.0127
    1W        W33561  27.653   3.091   0.781 -0.0416 -0.0407 -0.0966
    1W        W33562  16.099   4.539   0.487  0.1387 -0.0080 -0.3886
    1W        W33563   1.821   3.146   8.101 -0.0246 -0.2324 -0.2582
    1W        W33564   5.712  22.832   6.926  0.1102  0.0603  0.1909
    1W        W33565  22.279  26.769   1.356 -0.2707 -0.0104 -0.1264
    1W        W33566   0.674  24.216   7.791 -0.2743 -0.2016 -0.1453
    1W        W33567  14.707   1.181   7.333  0.1948  0.2464  0.2319
    1W        W33568  16.452  20.369   0.556 -0.0205 -0.2584  0.1378
    1W        W33569   7.313  14.815   7.590 -0.1499 -0.2082 -0.0412
    1W        W33570  15.500   6.941   2.317  0.2712 -0.1252 -0.1981
    1W        W33571  20.153  19.473   0.085  0.1390 -0.3462  0.1687
    1W        W33572  14.789   5.903   9.062 -0.2920  0.0326  0.1477
    1W        W33573   0.460  19.098   2.027 -0.1805  0.3019  0.2438
    1W        W33574   3.361   4.533   1.356 -0.2393 -0.1414  0.0234
    1W        W33575  15.723   1.906   6.677 -0.0710 -0.2161  0.2395
    1W        W33576  14.180  26.107   0.761 -0.1589 -0.4983  0.2693
    1W        W33577   4.456  19.252   6.621  0.0805  0.1910 -0.0649
    1W        W33578  21.183  14.160   6.882 -0.0422  0.2062  0.2432
    1W        W33579  25.127  28.126   3.124 -0.0941 -0.1461  0.1785
    1W        W33580  25.419   5.881   7.991  0.1296  0.1383 -0.0739
    1W        W33581   4.402   2.020   1.816 -0.1542 -0.0819  0.0633
    1W        W33582  28.359  23.858   8.605 -0.0590  0.0773  0.1770
    1W        W33583   9.367   7.857   7.846 -0.0893  0.1460  0.8149
    1W        W33584  28.119   4.929   0.884 -0.0686 -0.1677  0.0043
    1W        W33585  16.533  12.895   8.397  0.2630 -0.1234  0.2668
    1W        W33586  18.574   8.443   6.882  0.0732  0.1727  0.2551
    1W        W33587   3.512   1.520   8.536  0.0909 -0.0258  0.1212
    1W        W33588  21.025  29.162   3.541 -0.0043 -0.3811  0.2339
    1W        W33589  14.308   0.311   7.808 -0.1240  0.1000  0.1284
    1W        W33590   7.813  22.266   8.300 -0.0543 -0.1082  0.1935
    1W        W33591  29.445   0.730   2.123 -0.0640  0.1350 -0.1435
    1W        W33592   7.430   2.349   8.334 -0.1439  0.2137 -0.2919
    1W        W33593  18.043  28.290   0.962 -0.0354 -0.0403 -0.0248
    1W        W33594   8.435  26.722   7.322 -0.3056 -0.2743  0.1861
    1W        W33595  24.932  29.557   0.142  0.0815 -0.0674 -0.3893
    1W        W33596  17.340   4.440   6.899  0.0578  0.0713  0.1915
    1W        W33597  26.476  14.561   6.310  0.2686 -0.2799 -0.1841
    1W        W33598  19.715  17.833   1.301 -0.2457  0.0551  0.3026
    1W        W33599  14.167  28.906   9.158  0.0523 -0.0826 -0.1421
    1W        W33600  15.750  25.304   6.200 -0.0980  0.1018  0.2315
    1W        W33601  19.813  22.895   2.312  0.0637 -0.0134  0.0257
    1W        W33602   0.581  18.530   1.398  0.0099  0.2652 -0.2578
    1W        W33603  10.889   9.348   1.370  0.1663  0.2041 -0.2426
    1W        W33604   3.070  24.728   7.798 -0.1219  0.0182  0.1033
    1W        W33605   8.195  28.448   2.409 -0.1610  0.1492 -0.2208
    1W        W33606   5.360   0.536   9.056 -0.0081  0.0468 -0.2229
    1W        W33607  13.853  13.157   7.312 -0.2017  0.2839 -0.2160
    1W        W33608   1.896   8.807   7.894  0.2006 -0.0636 -0.1930
    1W        W33609  26.854  22.325   0.516  0.1576  0.0986  0.0665
    1W        W33610   8.069  16.398   7.030 -0.2798  0.2029 -0.1626
    1W        W33611  13.187   7.712   0.043  0.0504  0.2750 -0.0120
    1W        W33612   1.547  26.770   7.347  0.0269  0.0064 -0.1955
    1W        W33613   5.235  16.371   9.204  0.0609 -0.1849  0.1521
    1W        W33614  27.310   3.117   3.465  0.0612 -0.0355 -0.1467
    1W        W33615  18.514   5.957   1.608 -0.0038  0.0516  0.1238
    1W        W33616   2.223  25.754   0.494 -0.1105  0.1547  0.0609
    1W        W33617  22.769  23.607   1.612 -0.0541  0.3060 -0.0281
    1W        W33618  15.655  26.248   9.046 -0.0760 -0.0805  0.1879
    1W        W33619   7.414  10.418   2.912  0.1847 -0.2668 -0.0957
    1W        W33620  25.323  16.799   7.322  0.0598 -0.0934  0.0965
    1W        W33621   1.522   5.852   1.655 -0.2824 -0.2384  0.1109
    1W        W33622   0.115  13.953   7.874 -0.1167  0.2548 -0.0195
    1W        W33623   3.468   0.249   3.185  0.0022 -0.0440  0.0496
    1W        W33624   2.976   8.983   6.068  0.2084  0.0747  0.0607
    1W        W33625  17.799  22.788   7.735  0.0700 -0.0848  0.0720
    1W        W33626  17.127  28.574   8.877  0.2370 -0.1480  0.2909
    1W        W33627  14.346   6.742   7.449  0.1091 -0.2160  0.4473
    1W        W33628  14.496   2.100   7.824  0.2140 -0.0020 -0.1147
    1W        W33629  21.812  26.092   8.471  0.0078 -0.0965  0.1154
    1W        W33630  22.537  16.836   6.472 -0.0943 -0.0000 -0.3424
    1W        W33631  26.096   0.546   3.952 -0.2798  0.0382 -0.1533
    1W        W33632  12.783  11.474   0.862 -0.1912 -0.0851 -0.0322
    1W        W33633  13.080  29.822   1.416  0.2227  0.1001  0.1102
    1W        W33634  26.638  10.207   7.764 -0.1840  0.2964  0.1493
    1W        W33635  12.092  11.916   0.135 -0.1774  0.0969  0.2372
    1W        W33636  15.210  16.483   7.074  0.0073 -0.2719 -0.3214
    1W        W33637  23.788  29.699   0.826  0.1891 -0.1391 -0.0385
    1W        W33638  27.678  22.796   2.026 -0.0485  0.1395  0.3083
    1W        W33639  21.227  24.989   8.349 -0.0577  0.1459 -0.1315
    1W        W33640  10.991  10.301   3.069  0.0340  0.0645 -0.0889
    1W        W33641  15.084  10.485   1.509  0.2670  0.2301 -0.0809
    1W        W33642   7.135  22.462   7.513 -0.4299 -0.1016  0.0107
    1W        W33643  18.949  21.828   1.993 -0.0000  0.2020  0.4245
    1W        W33644   4.515   8.738   7.824 -0.2094  0.0454  0.2280
    1W        W33645  17.683  20.313   5.857  0.3221  0.0067 -0.0524
    1W        W33646  28.948  20.710   6.788 -0.5163  0.0769  0.0443
    1W        W33647  14.476   2.946   7.336 -0.0186  0.1416  0.1069
    1W        W33648  19.938  28.742   7.842  0.0677 -0.0247  0.0937
    1W        W33649  11.506   0.156   1.599  0.1439 -0.2376  0.1501
    1W        W33650   9.379   2.203   9.215  0.2852  0.1403  0.0617
    1W        W33651  26.555  21.640   0.076  0.1743 -0.1341 -0.1126
    1W        W33652  20.284  24.662   1.934  0.1806 -0.0590  0.0278
    1W        W33653  29.942  10.942   2.461  0.1159 -0.3043 -0.2323
    1W        W33654  20.712  14.282   9.163  0.2410  0.2664 -0.1032
    1W        W33655  14.051  29.613   8.097 -0.1205  0.0491  0.0250
    1W        W33656  26.406   1.309   1.115  0.0654  0.0980 -0.2041
    1W        W33657  13.522   4.333   1.339 -0.0926 -0.0983  0.1481
    1W        W33658   8.642   1.310   0.871 -0.1450  0.0269 -0.1677
    1W        W33659  22.812  15.271   1.695  0.0803  0.0784 -0.1094
    1W        W33660   7.726  22.735   6.877  0.1999  0.1325 -0.3832
    1W        W33661   3.735  17.747   7.877  0.0134 -0.3916 -0.0756
    1W        W33662  13.651  12.739   0.842 -0.3214 -0.2899  0.2508
    1W        W33663  22.306  17.310   6.307 -0.1047 -0.1951  0.2361
    1W        W33664  20.495   5.436   9.230 -0.1953 -0.0900 -0.0188
    1W        W33665  14.248  28.502   6.750  0.0674 -0.1895 -0.3706
    1W        W33666  30.132   3.576   0.323  0.0970 -0.1538  0.0278
    1W        W33667  22.474  29.536   8.217  0.0312  0.0271 -0.3750
    1W        W33668   9.414   5.939   7.617  0.1059 -0.1540  0.3279
    1W        W33669  13.357  27.949   0.093  0.2275  0.1382 -0.0785
    1W        W33670  14.389  13.806   0.618  0.2166  0.3282  0.1117
    1W        W33671   4.985   6.381   1.486 -0.1384  0.0269 -0.0644
    1W        W33672  25.575  29.968   7.091  0.1822 -0.2719  0.0860
    1W        W33673  27.742   5.903   6.783 -0.0684 -0.1218 -0.0745
    1W        W33674  18.082   6.824   6.991 -0.3214 -0.2336  0.1929
    1W        W33675  27.131  18.828   6.713  0.1601  0.0743  0.2393
    1W        W33676  29.856  13.302   0.381  0.0451 -0.1535 -0.0100
    1W        W33677  21.617  24.530   2.358 -0.1075 -0.1418 -0.0482
    1W        W33678   4.434  29.330   1.380  0.1625 -0.0371 -0.4765
    1W        W33679  23.615  27.100   7.898 -0.0923 -0.1967  0.0283
    1W        W33680  23.628  20.183   7.529 -0.1491  0.1504 -0.2782
    1W        W33681  13.673   0.414   1.216  0.1646  0.3233 -0.1964
    1W        W33682   6.039  23.169   0.939  0.1087  0.1370  0.0753
    1W        W33683   5.885   3.211   1.436 -0.0273  0.0510  0.3194
    1W        W33684  16.170   7.369   8.788 -0.0455  0.1193 -0.3571
    1W        W33685  23.193  25.358   7.246 -0.2689  0.0498 -0.0967
    1W        W33686  29.012   7.213   8.791  0.0013  0.0898  0.1007
    1W        W33687  12.768  18.043   6.002 -0.2180 -0.4412  0.0930
    1W        W33688  12.053   9.609   1.642  0.2220 -0.1221  0.0367
    1W        W33689  26.503  12.181   9.128 -0.4296 -0.0664  0.3765
    1W        W33690  24.243  21.867   6.047 -0.0931  0.0835 -0.0003
    1W        W33691  21.642   3.968   6.554 -0.0682  0.0540 -0.4772
    1W        W33692  26.152   4.206   9.028 -0.0299 -0.1866  0.2551
    1W        W33693  15.907  25.458   1.691 -0.2057  0.1912  0.0703
    1W        W33694   5.981  27.868   8.761  0.1661 -0.1170 -0.0951
    1W        W33695  29.738  29.303   2.763  0.3372  0.1749 -0.0653
    1W        W33696   2.056  13.395   0.197 -0.1746  0.1011 -0.0328
    1W        W33697   8.071  16.380   8.465  0.0806  0.0828  0.0119
    1W        W33698  19.990  28.666   8.332 -0.0183  0.1574 -0.1601
    1W        W33699  18.209   4.018   7.117 -0.1001 -0.1030  0.0243
    1W        W33700  22.802  16.296   0.220 -0.2652 -0.0124  0.0908
    1W        W33701  10.857  15.108   0.455 -0.0469  0.1079 -0.3493
    1W        W33702  10.050   1.153   0.460 -0.1855  0.0166 -0.0420
    1W        W33703   2.151   2.226   6.853  0.0996  0.0008 -0.0095
    1W        W33704   0.630  12.660   6.941  0.0802 -0.0070 -0.1933
    1W        W33705  28.272   9.753   1.836  0.1466 -0.4778  0.3883
    1W        W33706  11.658   1.911   8.054 -0.1211 -0.0023  0.1519
    1W        W33707   0.788  22.119   0.647  0.0800 -0.0829  0.0370
    1W        W33708  13.678  24.782   1.510  0.1201 -0.1973  0.2725
    1W        W33709  27.363  17.989   8.424  0.0559 -0.0929 -0.0238
    1W        W33710  13.457   8.143   9.197 -0.1323 -0.1509  0.3791
    1W        W33711   0.438  29.316   3.615 -0.2607 -0.0813  0.1691
    1W        W33712  24.149  13.835   9.160 -0.2498  0.1715  0.2085
    1W        W33713  11.952   7.300   7.251 -0.0051 -0.1040  0.0257
    1W        W33714   0.471  20.323   6.119 -0.1515 -0.1649  0.1327
    1W        W33715  25.082   4.115   9.200 -0.4063 -0.1447 -0.2499
    1W        W33716  14.341  13.189   8.455 -0.1215 -0.2588  0.1416
    1W        W33717  17.296  10.584   9.230  0.0100  0.1263  0.0131
    1W        W33718   1.001   9.429   7.689  0.0503  0.2143  0.0156
    1W        W33719  17.159   5.484   7.057 -0.0654  0.0840  0.2200
    1W        W33720   9.074  28.310   8.434 -0.1948 -0.2356 -0.0489
    1W        W33721   7.359  14.557   7.140 -0.0176  0.4240  0.0894
    1W        W33722  28.636   2.464   3.913 -0.3170 -0.1774 -0.2089
    1W        W33723  20.802  15.052   8.621  0.3251  0.1484 -0.2210
    1W        W33724  14.709   4.368   7.990  0.1115 -0.3208 -0.0649
    1W        W33725   8.816   7.709   8.727  0.1241  0.1599  0.2022
    1W        W33726   7.765  19.820   6.358 -0.0232 -0.2372 -0.0566
    1W        W33727  19.389  30.312   0.069  0.0361 -0.0667 -0.3174
    1W        W33728   4.661   1.388   3.631  0.2280 -0.2699 -0.3915
    1W        W33729  29.704   1.863   1.430 -0.2852  0.0201 -0.1029
    1W        W33730   7.087   8.175   8.205 -0.1179 -0.0060  0.1498
    1W        W33731  28.037  16.647   9.187 -0.1649 -0.2851  0.0101
    1W        W33732  29.295  23.305   7.507  0.0317  0.1119 -0.0018
    1W        W33733  15.507  16.383   9.184  0.0764 -0.0266  0.3174
    1W        W33734  28.093   9.695   0.863 -0.1485 -0.0524 -0.1050
    1W        W33735   3.434  11.290   0.438 -0.2008 -0.4858  0.1384
    1W        W33736  17.896   4.197   0.222 -0.1510 -0.4303  0.0742
    1W        W33737  20.279   4.865   2.617  0.3737 -0.2275 -0.1686
    1W        W33738  19.748   4.714   7.501  0.2576  0.0190 -0.0946
    1W        W33739  11.550   8.199   3.226  0.0209 -0.0493 -0.0706
    1W        W33740  16.190   2.678   7.808  0.1446 -0.3141 -0.1020
    1W        W33741   9.087  10.428   3.090  0.5020  0.1055  0.0673
    1W        W33742  15.822  14.736   8.051 -0.0824 -0.2908  0.3791
    1W        W33743  26.201  25.202   8.462 -0.0256 -0.0393 -0.2132
    1W        W33744  11.192  20.406   5.411 -0.0041 -0.0572  0.0477
    1W        W33745  29.545  22.853   1.221  0.1224 -0.1457 -0.0739
    1W        W33746   6.822  16.773   7.429  0.0504  0.0540  0.0306
    1W        W33747   0.675  29.345   1.060  0.1649  0.0765 -0.1191
    1W        W33748  12.103   2.156   1.557 -0.0249  0.0796  0.1109
    1W        W33749  20.025  18.192   7.420 -0.1157 -0.0214  0.2239
    1W        W33750  14.283  15.578   1.571 -0.1567  0.0695  0.0328
    1W        W33751   8.286  17.268   0.855  0.1465  0.0225 -0.1392
    1W        W33752  15.882  26.532   1.462 -0.0010 -0.0318  0.1936
    1W        W33753  13.782  12.767   0.356  0.3123  0.0015 -0.0277
    1W        W33754   7.512  10.724   1.180  0.2198  0.0798 -0.2107
    1W        W33755  23.528  22.196   0.607 -0.1028 -0.1974  0.3258
    1W        W33756  23.407  23.717   6.689 -0.2073  0.0183  0.0194
    1W        W33757  16.352  12.171   0.370  0.1150 -0.2520  0.0325
    1W        W33758  29.593  17.953   1.912  0.2009 -0.0956 -0.1314
    1W        W33759  10.245  27.177   0.385 -0.0096  0.0504 -0.1656
    1W        W33760  12.188  13.039   8.853  0.0111 -0.0492  0.0245
    1W        W33761  20.069   8.065   0.050  0.1487  0.0062 -0.0935
    1W        W33762   1.590  26.610   2.196 -0.2136 -0.1199 -0.0504
    1W        W33763   9.518   2.835   2.430 -0.0946  0.2608 -0.0224
    1W        W33764  29.254  26.483   9.102  0.1266 -0.2477 -0.0754
    1W        W33765   5.863  10.908   1.405  0.2009 -0.1710  0.0831
    1W        W33766   2.487  21.456   8.132 -0.2434  0.0790 -0.0057
    1W        W33767  25.200   9.717   6.928 -0.1900 -0.2880 -0.1489
    1W        W33768  20.599   0.581   2.093  0.3840 -0.1108 -0.0681
    1W        W33769   2.233  14.754   2.291 -0.2230  0.0578  0.2513
    1W        W33770  13.407   6.930   6.851  0.1052 -0.1138 -0.0294
    1W        W33771  11.423  29.918   7.077 -0.2404  0.0091 -0.0967
    1W        W33772  18.105   6.425   0.575 -0.0999  0.1207 -0.0397
    1W        W33773  13.060  17.864   9.053  0.0533  0.4271  0.0500
    1W        W33774   3.421  16.227   6.878 -0.0126 -0.1235 -0.1138
    1W        W33775   0.179  27.818   9.198 -0.1060 -0.0531  0.3259
    1W        W33776  29.535  22.457   7.585 -0.0741 -0.0902  0.0945
    1W        W33777   9.604  27.424   2.207 -0.2478  0.0394  0.2678
    1W        W33778   0.769  10.294   9.051 -0.0365  0.1514  0.0120
    1W        W33779   7.702  23.282   7.003 -0.1613 -0.0145 -0.1343
    1W        W33780  11.517   4.677   0.855 -0.1609 -0.2028 -0.0142
    1W        W33781  29.516  26.623   7.442 -0.2491 -0.1065  0.3617
    1W        W33782  15.915   2.590   8.208  0.0163 -0.1122 -0.3027
    1W        W33783  29.151  16.402   2.178  0.0390 -0.1170  0.1331
    1W        W33784  14.013   0.540   8.131  0.1013 -0.3446  0.3951
    1W        W33785   0.310  24.567   8.686  0.1106  0.0667 -0.2718
    1W        W33786  21.564  10.102   6.601 -0.0155  0.0802 -0.0282
    1W        W33787  29.775  23.668   8.628 -0.1245  0.1221  0.3327
    1W        W33788  17.857  29.302   1.308  0.0990  0.0561  0.2496
    1W        W33789  28.972   7.523   0.950  0.1319  0.3718 -0.1014
    1W        W33790   4.737   1.473   2.436 -0.2074 -0.2782  0.2061
    1W        W33791  21.703   5.329   0.821 -0.1228 -0.0953 -0.0746
    1W        W33792  25.382  15.283   1.973  0.0093  0.1505 -0.2926
    1W        W33793  29.924  26.811   2.039 -0.1382  0.0210  0.1907
    1W        W33794  17.223  23.201   6.831  0.2267  0.0515  0.2187
    1W        W33795  11.625  15.644   7.989  0.2174 -0.0357 -0.1765
    1W        W33796  11.222  19.894   0.237  0.1878  0.1875 -0.0603
    1W        W33797  20.225  19.161   7.604 -0.1223 -0.2247  0.1055
    1W        W33798  18.274   6.999   6.515  0.0848 -0.0284  0.2313
    1W        W33799  14.851  14.445   8.674  0.1551  0.1319  0.0430
    1W        W33800  18.300  13.192   7.150 -0.0003  0.0093 -0.1471
    1W        W33801   9.988  17.750   8.968  0.1050  0.0053 -0.0995
    1W        W33802   1.593   7.671   7.119 -0.2416 -0.0896  0.1528
    1W        W33803  28.187   2.261   3.077 -0.1216 -0.1302 -0.1302
    1W        W33804  24.622   8.463   8.779  0.1354  0.3408  0.0011
    1W        W33805   8.638   2.074   3.127 -0.0626  0.2702 -0.0925
    1W        W33806   8.363  23.976   6.001  0.0543  0.2733 -0.1491
    1W        W33807   0.362  22.014   8.204  0.0312  0.1251  0.2927
    1W        W33808  12.313   4.682   7.555  0.0398 -0.0357  0.0608
    1W        W33809  24.281   9.942   9.261  0.1823 -0.0622  0.1852
    1W        W33810   5.633   7.819   1.090  0.2239  0.2032  0.0777
    1W        W33811  22.212  25.051   6.204  0.1255  0.1457 -0.0904
    1W        W33812  27.061   2.581   3.260  0.0204  0.1810  0.0281
    1W        W33813   6.370  11.894   8.700  0.2274 -0.3119  0.0786
    1W        W33814   8.158  22.878   6.756 -0.1326  0.0638  0.1267
    1W        W33815  11.693  23.580   5.790 -0.0571  0.1739 -0.3020
    1W        W33816  17.991  24.950   2.221  0.0938 -0.0752 -0.0660
    1W        W33817  17.773  29.948   8.017  0.2565  0.1834 -0.3862
    1W        W33818   7.788  10.920   0.385 -0.0662 -0.0236  0.3756
    1W        W33819  21.664   8.737   0.603  0.1302 -0.0007 -0.0125
    1W        W33820  29.192  20.417   0.874 -0.1060  0.1547 -0.0813
    1W        W33821  24.749  18.810   6.741 -0.2039  0.2823  0.0074
    1W        W33822   7.211  22.325   5.781  0.5905 -0.3804  0.1599
    1W        W33823  11.609  23.033   8.594  0.3613 -0.1413 -0.0507
    1W        W33824  17.370  25.392   0.000 -0.1516 -0.1443  0.0646
    1W        W33825   0.756  24.460   1.299 -0.0569  0.2017 -0.1036
    1W        W33826  24.461   4.953   1.987  0.0427 -0.2797  0.2054
    1W        W33827  15.210   6.181   1.022  0.1317  0.1330 -0.0212
    1W        W33828  20.778   7.710   8.195 -0.0862 -0.0913  0.3774
    1W        W33829  18.801  24.911   1.014  0.1423  0.0102 -0.1481
    1W        W33830  10.189  24.538   7.096  0.0636 -0.1717  0.0678
    1W        W33831  25.027  24.528   2.357 -0.0815  0.0941 -0.0220
    1W        W33832  17.158  11.409   7.060  0.1328 -0.1928 -0.1263
    1W        W33833  13.868   1.475   6.993  0.0073  0.0617  0.0670
    1W        W33834  10.579  26.998   1.288  0.1184 -0.0851 -0.1589
    1W        W33835  13.642  18.057   9.053 -0.0265  0.2591  0.0699
    1W        W33836  16.493  19.108   7.160 -0.1791  0.0791 -0.0620
    1W        W33837  15.778  19.851   6.462 -0.0744  0.2068  0.0848
    1W        W33838  22.276   5.829   7.596  0.0491  0.0264 -0.0504
    1W        W33839  20.770  23.310   7.985 -0.1005  0.2453  0.0171
    1W        W33840   7.425  25.327   8.967  0.1533 -0.4266 -0.1725
    1W        W33841   1.892  26.932   9.232  0.0467 -0.4703 -0.0004
    1W        W33842  15.384  14.151   3.061 -0.1980  0.0745  0.5794
    1W        W33843  19.367  26.112   6.769 -0.1168  0.2123 -0.4376
    1W        W33844  24.236   2.617   3.154  0.0095  0.1009 -0.1139
    1W        W33845  28.880   8.377   2.282 -0.1812 -0.0920  0.0105
    1W        W33846  13.071  20.341   8.963 -0.0507 -0.1396 -0.0078
    1W        W33847  12.476  23.737   7.219  0.2263  0.1335 -0.8011
    1W        W33848   5.628  24.995   1.326  0.2307  0.0412  0.0798
    1W        W33849  16.204  17.208   2.620  0.0224  0.0286 -0.0115
    1W        W33850  17.786   4.640   1.005 -0.1105  0.0890  0.2527
    1W        W33851  25.514  13.832   1.366 -0.1727  0.0954  0.3512
    1W        W33852  15.424   9.779   1.005  0.1341 -0.2834  0.4413
    1W        W33853   6.520  17.833   1.186  0.0479 -0.2111 -0.0304
    1W        W33854  11.977  21.278   8.846 -0.0196  0.4308 -0.1598
    1W        W33855   4.759  26.046   2.730  0.4645 -0.3069  0.1251
    1W        W33856  29.928  23.233   8.869  0.1017 -0.1375  0.0238
    1W        W33857  24.335  22.584   1.737  0.4667 -0.0032  0.1167
    1W        W33858  26.387   0.645   3.166  0.1521  0.2705  0.1040
    1W        W33859   2.297  22.386   8.738 -0.1880  0.1813  0.0092
    1W        W33860   3.672   6.751   2.154  0.0018  0.2559 -0.3498
    1W        W33861  13.792  16.144   7.217  0.0620  0.0917 -0.1167
    1W        W33862  22.587  18.848   6.893  0.3008 -0.0679 -0.0514
    1W        W33863  15.185   6.799   9.131  0.1825 -0.4154 -0.0191
    1W        W33864   2.928  21.046   1.064  0.1529 -0.0220  0.0414
    1W        W33865  13.768   3.885   8.114 -0.2034 -0.2073  0.2684
    1W        W33866   8.775   1.560   9.135 -0.0550 -0.1190 -0.2924
    1W        W33867   5.211   4.081   1.566 -0.1433 -0.1097 -0.0172
    1W        W33868  17.540  18.261   2.056 -0.0049 -0.0228 -0.1584
    1W        W33869  21.006   5.305   0.061 -0.0203  0.0910  0.2047
    1W        W33870  26.973  25.940   2.409  0.3201 -0.1314  0.0952
    1W        W33871   0.967  30.091   2.168  0.1131 -0.5105  0.1463
    1W        W33872  16.923  16.801   7.185  0.2161 -0.0486  0.0284
    1W        W33873  17.653  27.777   7.252 -0.1531 -0.4593 -0.1955
    1W        W33874  10.959   7.770   0.636  0.2841 -0.0297  0.1261
    1W        W33875   3.760   2.606   1.152 -0.1044 -0.1022  0.2818
    1W        W33876  16.621  11.519   1.128 -0.1639  0.3144  0.1537
    1W        W33877   6.801   6.721   6.454  0.0104  0.0972  0.0469
    1W        W33878   3.384   5.386   2.067  0.2562  0.1564  0.0335
    1W        W33879  18.561   1.451   0.323  0.1162  0.2208  0.0364
    1W        W33880  29.329   2.344   7.672 -0.1052  0.2307  0.0373
    1W        W33881  18.078   1.784   1.591  0.0681 -0.0819 -0.0221
    1W        W33882   3.781  16.540   1.447 -0.0665 -0.0274  0.1961
    1W        W33883  19.766  25.659   0.036  0.3333 -0.1898 -0.0956
    1W        W33884  17.213  13.628   8.178 -0.2233 -0.0171  0.1328
    1W        W33885   7.297  28.710   1.278 -0.1095  0.4674  0.0084
    1W        W33886  14.819  27.515   1.488 -0.1315 -0.0495 -0.2074
    1W        W33887  24.978  14.065   0.496  0.1030  0.2202  0.0763
    1W        W33888   7.776   6.591   8.929 -0.1677  0.2032 -0.0019
    1W        W33889   2.170   9.918   8.264 -0.1671 -0.1649  0.2233
    1W        W33890  28.011  10.802   8.136 -0.0064  0.1274  0.0677
    1W        W33891  17.891  22.613   2.069 -0.1103  0.2438  0.0028
    1W        W33892   2.505   8.528   1.738  0.1715  0.2921 -0.1895
    1W        W33893   9.904  20.176   1.724  0.1840  0.0420  0.0972
    1W        W33894   0.540  13.579   8.128 -0.3024 -0.0602  0.0304
    1W        W33895  15.296   0.872   9.191 -0.0772 -0.2923 -0.1575
    1W        W33896   4.585  15.285   8.480 -0.0432 -0.0435  0.0703
    1W        W33897  17.483  15.542   2.982 -0.2093  0.1407 -0.0287
    1W        W33898   5.195   3.407   3.160  0.1221  0.0385 -0.0134
    1W        W33899  15.165  18.787   6.885 -0.3617  0.3382  0.1996
    1W        W33900  15.156  23.739   0.510 -0.1565 -0.1191 -0.0684
    1W        W33901   3.209  17.266   8.190  0.1155  0.2474  0.0290
    1W        W33902  25.611  13.988   9.010 -0.1093  0.4329 -0.0222
    1W        W33903  17.507  23.297   1.872 -0.3228  0.0511  0.0608
    1W        W33904  15.266  10.557   8.102 -0.3832  0.0307  0.0192
    1W        W33905  13.461  20.803   8.054 -0.2196 -0.3439 -0.0295
    1W        W33906  18.648   2.403   2.337  0.3891 -0.0830 -0.1491
    1W        W33907   4.862  14.753   7.800  0.0893  0.1409  0.2378
    1W        W33908   6.952  20.734   7.307  0.1887  0.0215  0.1456
    1W        W33909  26.299   1.886   7.382  0.3347 -0.2951 -0.1206
    1W        W33910  11.030  18.547   7.109 -0.1192  0.0089 -0.3302
    1W        W33911  21.930  23.308   7.026 -0.2552 -0.2386  0.3413
    1W        W33912  22.269  25.535   0.203  0.2223 -0.0443  0.2234
    1W        W33913  15.789  23.998   3.117 -0.3242  0.0358  0.1428
    1W        W33914  12.747  14.659   7.441  0.1602  0.1426  0.1881
    1W        W33915  20.583  23.075   8.390  0.4303  0.0337  0.1417
    1W        W33916   9.382   1.276   7.684 -0.0035  0.0604 -0.4019
    1W        W33917  27.798  14.955   1.956 -0.1897 -0.2304  0.3161
    1W        W33918  25.434  26.352   3.344  0.0991  0.1891  0.1183
    1W        W33919  21.312   5.772   3.229  0.2014 -0.0411  0.0672
    1W        W33920   3.407  15.247   0.017 -0.2957 -0.0665 -0.1986
    1W        W33921  17.764  29.678   2.288 -0.1060 -0.2432  0.0676
    1W        W33922  19.563  11.769   0.344  0.1032  0.0031 -0.1884
    1W        W33923  26.589  28.286   7.488 -0.2206  0.1161 -0.0065
    1W        W33924  19.518  24.524   0.436 -0.2013 -0.2635 -0.0888
    1W        W33925   0.469   1.689   2.246 -0.1933  0.0949  0.2362
    1W        W33926  25.112  11.582   0.446  0.2546 -0.0798  0.0027
    1W        W33927  12.258   2.053   6.699 -0.1583 -0.0413 -0.4095
    1W        W33928   0.124  19.297   1.089  0.0961 -0.0320  0.1633
    1W        W33929  21.727   0.610   7.302 -0.1827  0.1902 -0.0706
    1W        W33930   6.700  16.646   8.079  0.0036 -0.1940  0.4173
    1W        W33931  17.172   5.710   6.536  0.1031 -0.0002  0.1886
    1W        W33932   0.355   3.058   8.212  0.0872  0.1677 -0.2498
    1W        W33933  22.552  17.161   6.862 -0.2337 -0.0606  0.0287
    1W        W33934   8.247   1.604   3.460  0.0104 -0.0959  0.3075
    1W        W33935   1.785   4.889   7.781 -0.2006  0.0831 -0.2578
    1W        W33936   2.855   4.104   1.315 -0.0836 -0.0086  0.0047
    1W        W33937  27.472   1.504   3.762  0.1905  0.0296 -0.1061
    1W        W33938   7.361  18.371   1.546  0.2549  0.1772 -0.0363
    1W        W33939  24.591  25.823   0.105  0.4020  0.2033  0.0619
    1W        W33940  23.398   5.585   1.966 -0.3113  0.3403  0.1183
    1W        W33941  11.525  19.369   6.811 -0.0759 -0.0333 -0.2194
    1W        W33942  27.668  13.448   0.096 -0.3775 -0.2478  0.1603
    1W        W33943  10.407   8.402   6.588  0.0369  0.2497 -0.0761
    1W        W33944  18.463   8.870   7.920  0.1216  0.1819  0.0919
    1W        W33945  27.510  29.771   1.716  0.1647  0.0013  0.0413
    1W        W33946  11.251  10.057   2.707 -0.0306 -0.2183  0.0173
    1W        W33947  20.913   4.018   7.650 -0.3467  0.4294 -0.1545
    1W        W33948   9.770  18.050   0.912 -0.1306  0.0433 -0.2017
    1W        W33949   4.410   3.030   1.956  0.1896  0.0419  0.1017
    1W        W33950   3.710  23.507   7.697 -0.0072  0.1030  0.1447
    1W        W33951  16.533  24.560   6.683  0.0118 -0.1989  0.0106
    1W        W33952   4.513  29.271   2.396  0.0273  0.0787  0.2941
    1W        W33953  15.332  28.115   2.097 -0.3263 -0.0582  0.0677
    1W        W33954   1.864   0.886   7.126  0.3624  0.3381  0.3186
    1W        W33955   3.050  25.516   0.611  0.0319  0.1969  0.4815
    1W        W33956   8.434  10.947   1.580  0.3321  0.1291 -0.0302
    1W        W33957  27.192  29.115   7.402  0.0123  0.2739  0.1554
    1W        W33958  26.789  14.547   9.081  0.1637  0.0899  0.0688
    1W        W33959  20.646  13.238   0.678 -0.0467 -0.0223 -0.2228
    1W        W33960  25.353  29.284   0.193  0.1649 -0.0204 -0.0461
    1W        W33961  11.847  11.480   0.211  0.1584 -0.1572  0.1680
    1W        W33962  29.529  29.431   0.337  0.1559 -0.2336 -0.1794
    1W        W33963  21.269   0.557   1.770 -0.2051 -0.0291 -0.1793
    1W        W33964   0.616  23.503   2.407  0.0281 -0.2768  0.1661
    1W        W33965  18.679  16.112   0.831 -0.1819  0.1376 -0.1235
    1W        W33966  20.472  12.225   0.458 -0.2065  0.4861  0.0774
    1W        W33967   8.018  10.872   2.468  0.0086  0.1581 -0.1550
    1W        W33968  14.433  21.152   7.359  0.3228 -0.1780  0.1616
    1W        W33969  18.979   7.566   0.511  0.2302 -0.0910  0.0344
    1W        W33970   0.294  27.757   8.481 -0.1472 -0.0530  0.0918
    1W        W33971   1.305  14.503   6.916 -0.0616  0.0364 -0.1617
    1W        W33972  24.798  13.573   1.493 -0.0350  0.0282 -0.0551
    1W        W33973   4.244  14.668   8.788  0.0211  0.0781 -0.1105
    1W        W33974  18.890  15.605   2.025  0.1258 -0.1429 -0.1066
    1W        W33975  13.759  30.353   3.268 -0.1438 -0.0593  0.0676
    1W        W33976   3.656  11.976   6.927  0.0197 -0.1649  0.0488
    1W        W33977  24.715  20.519   1.289 -0.0105  0.1796 -0.4487
    1W        W33978   2.308  10.013   2.062  0.3226  0.1046  0.0745
    1W        W33979   9.267  22.996   6.304  0.1381  0.2490  0.2256
    1W        W33980   6.465  12.456   7.614 -0.1617  0.0374  0.0226
    1W        W33981  19.591   0.970   6.998  0.1705 -0.1870 -0.0152
    1W        W33982  10.658   0.421   8.924  0.2255 -0.1546  0.1226
    1W        W33983  11.830   1.138   6.949  0.0617  0.2582  0.1745
    1W        W33984  21.316   7.075   6.516 -0.0420 -0.2106  0.0953
    1W        W33985  27.087   2.203   0.674  0.0153  0.0652 -0.2792
    1W        W33986   7.027  14.901   8.339  0.0242 -0.1235  0.2044
    1W        W33987  13.503   9.383   0.812 -0.0782  0.1341 -0.1396
    1W        W33988  19.691   1.529   7.830 -0.1594  0.0915 -0.2349
    1W        W33989  17.342  29.423   2.684  0.1963  0.1866  0.0965
    1W        W33990  21.586  23.272   0.096 -0.1618  0.0579  0.1272
    1W        W33991   0.834  28.645   8.579 -0.1444  0.1952 -0.1059
    1W        W33992  12.684  28.243   3.197  0.4626 -0.0371  0.2750
    1W        W33993  28.013  29.843   7.438  0.2357 -0.0411  0.0835
    1W        W33994   2.757  18.979   6.652  0.2393  0.1888  0.0336
    1W        W33995  12.090  10.301   1.065 -0.4060  0.0427  0.0335
    1W        W33996  13.435  20.507   0.178  0.2801  0.0835 -0.2293
    1W        W33997   7.045  12.919   0.542 -0.2494  0.2198 -0.5077
    1W        W33998  18.180  22.106   0.302 -0.1092  0.1149 -0.3324
    1W        W33999  23.754  13.353   0.787  0.0455 -0.0852 -0.0012
    1W        W34000  21.597  27.651   1.419  0.4216 -0.2164 -0.0473
    1W        W34001   9.927   9.888   2.262 -0.2166 -0.1821 -0.1798
    1W        W34002  26.712   1.681   1.434  0.0950 -0.0240  0.0135
    1W        W34003   4.663  16.347   1.121 -0.0330 -0.0956 -0.0950
    1W        W34004   1.396  16.626   0.375 -0.1389 -0.0643  0.0118
    1W        W34005  13.018  15.174   2.644 -0.0787 -0.1925 -0.1935
    1W        W34006  14.306  13.878   7.162  0.2854  0.1753  0.0419
    1W        W34007   6.606  28.142   0.208  0.1080 -0.1092 -0.0264
    1W        W34008   2.464  11.885   8.701 -0.0880 -0.0985  0.2247
    1W        W34009  16.631  28.456   8.735  0.1161  0.2626  0.0292
    1W        W34010  24.851   5.022   0.573  0.1246 -0.0772 -0.1038
    1W        W34011  18.152  20.341   8.925 -0.1850 -0.2212 -0.1150
    1W        W34012  21.119  18.022   2.183  0.0547 -0.2255 -0.1511
    1W        W34013  21.788  16.881   8.924 -0.0962 -0.3942 -0.0048
    1W        W34014   1.860  25.082   7.421  0.1872 -0.3151  0.3051
    1W        W34015   3.890  13.009   6.082 -0.2667  0.1546  0.2719
    1W        W34016  18.043  14.334   2.093 -0.0588 -0.0421  0.0436
    1W        W34017  23.215  24.953   8.444 -0.1112  0.1061  0.4483
    1W        W34018  16.363   4.501   8.948  0.1324  0.0581  0.0994
    1W        W34019   2.664  25.231   7.161  0.1003 -0.0343  0.1528
    1W        W34020  22.962   4.052   0.347 -0.0986  0.1228 -0.2092
    1W        W34021   4.998  19.337   5.833  0.2282 -0.0581 -0.2285
    1W        W34022  28.663   4.654   0.775 -0.0224  0.2431  0.1931
    1W        W34023  16.592  27.895   0.104  0.0990 -0.0197  0.0950
    1W        W34024  28.449  18.641   6.833  0.3830  0.1237  0.2861
    1W        W34025   9.181  11.336   7.754  0.1791  0.2851 -0.0927
    1W        W34026   4.664  12.292   1.708  0.1262  0.2696 -0.0490
    1W        W34027   4.172  22.976   2.632 -0.0020  0.5828 -0.1715
    1W        W34028  29.530  12.080   7.845  0.1303  0.0254  0.1657
    1W        W34029  25.016  10.075   6.654  0.4455  0.1587 -0.1065
    1W        W34030  20.677   4.159   8.618  0.1839  0.1214  0.2350
    1W        W34031   9.704   2.818   8.207 -0.0952 -0.0568 -0.1935
    1W        W34032   0.749   7.446   2.406  0.1715 -0.1605 -0.0126
    1W        W34033   5.885   8.372   2.240  0.1488  0.1676 -0.1187
    1W        W34034   6.863  20.938   7.816 -0.0854 -0.0715 -0.0908
    1W        W34035  24.553  26.181   2.178 -0.0419  0.0026 -0.1747
    1W        W34036  11.967   6.539   6.093 -0.2912  0.0180 -0.0041
    1W        W34037   2.838  12.101   6.272 -0.1439  0.2385  0.0714
    1W        W34038  22.928  12.750   9.087  0.0836 -0.1554  0.0596
    1W        W34039  24.195   0.626   3.247 -0.0419 -0.0649 -0.0277
    1W        W34040  15.787  22.432   2.319  0.0102  0.0776  0.3633
    1W        W34041   9.547  28.025   1.413 -0.0502 -0.0911  0.0337
    1W        W34042  24.335  28.645   2.816 -0.0296 -0.3522  0.1644
    1W        W34043   5.398  14.305   1.972  0.0319 -0.0102 -0.1899
    1W        W34044  17.059  13.222   2.488  0.1390  0.4657  0.0315
    1W        W34045   7.505  22.846   0.842 -0.2413  0.3693 -0.0559
    1W        W34046  25.440   6.856   8.895  0.1819  0.1508  0.0930
    1W        W34047  23.878  25.514   7.782  0.1307  0.1077 -0.2367
    1W        W34048   1.518  18.375   7.967  0.0202  0.0655 -0.0374
    1W        W34049   9.183  22.922   0.849  0.1117 -0.2544 -0.0468
    1W        W34050  27.621  18.123   8.969 -0.0422 -0.0155 -0.2508
    1W        W34051  22.416   7.666   1.187  0.0661  0.0684 -0.3304
    1W        W34052   5.342  20.277   0.734 -0.3847 -0.0905 -0.0986
    1W        W34053  20.632  17.109   1.772 -0.0660 -0.0833  0.1238
    1W        W34054  15.508  23.263   7.136 -0.2068  0.4597  0.1597
    1W        W34055  18.405  10.495   7.477 -0.1444 -0.1421 -0.0453
    1W        W34056  21.901   0.125   0.363  0.0020 -0.0794 -0.0664
    1W        W34057  17.457   6.724   0.903 -0.2069  0.1858 -0.2552
    1W        W34058  30.221   6.198   1.884 -0.1170 -0.1289  0.0740
    1W        W34059  12.707  25.312   7.141 -0.0795  0.1759  0.1540
    1W        W34060  17.655  18.438   9.066  0.1146  0.1908  0.0421
    1W        W34061  12.973  27.986   7.818  0.0167 -0.1717  0.1529
    1W        W34062   7.168  12.800   0.088  0.0400  0.0992 -0.0978
    1W        W34063  18.238  21.402   7.278  0.0766 -0.1101  0.0731
    1W        W34064  24.955  10.062   7.909 -0.0922 -0.3035  0.0827
    1W        W34065  27.966   3.965   8.418 -0.0830  0.1586 -0.0534
    1W        W34066  25.819  23.140   1.589  0.0045  0.1954 -0.0382
    1W        W34067   3.593  27.108   8.040 -0.1866 -0.0855  0.2152
    1W        W34068   8.035  26.545   1.893 -0.1880 -0.5924  0.2656
    1W        W34069   5.527  13.015   0.762  0.0607  0.0890 -0.0343
    1W        W34070   7.337  12.723   0.915 -0.0228 -0.1674  0.1503
    1W        W34071   9.229  22.728   1.325  0.0044 -0.1947  0.1902
    1W        W34072   7.386  30.337   2.412  0.2148 -0.3102 -0.3339
    1W        W34073  19.117  10.925   0.532 -0.2311  0.0679 -0.2169
    1W        W34074  19.203  20.423   6.889 -0.2364  0.0107  0.2927
    1W        W34075  13.526   5.779   6.877  0.1465 -0.1772 -0.2570
    1W        W34076   8.093   1.371   2.941 -0.3673 -0.2763 -0.1080
    1W        W34077  14.640  25.521   8.154 -0.2358  0.1110  0.0969
    1W        W34078  18.273  25.368   6.456  0.0156 -0.0440  0.1847
    1W        W34079  19.269  24.867   6.381 -0.0834 -0.2282  0.0305
    1W        W34080  27.700   4.967   2.414  0.1616 -0.3340  0.0456
    1W        W34081  13.592  27.223   3.458  0.2642 -0.2476 -0.1214
    1W        W34082  17.100  21.056   0.090 -0.2765 -0.0452 -0.3065
    1W        W34083  13.087   2.327   0.154 -0.2873 -0.1111  0.0367
    1W        W34084  17.499   4.504   8.601  0.1653 -0.2346 -0.0849
    1W        W34085   6.852   2.785   2.158  0.0048 -0.0116 -0.0870
    1W        W34086  28.459  11.900   1.887  0.1947 -0.3192  0.2220
    1W        W34087  14.380  10.311   1.437 -0.1283  0.1769 -0.0996
    1W        W34088   7.133   5.597   0.479  0.3660 -0.2584  0.0529
    1W        W34089  10.578  18.409   7.593  0.2001  0.2528 -0.0162
    1W        W34090  24.449   4.082   7.727 -0.1512 -0.0417 -0.4285
    1W        W34091   4.987  10.281   2.020 -0.3730 -0.1568 -0.0314
    1W        W34092  15.399  16.200   8.726  0.0424  0.1016  0.0096
    1W        W34093  25.850   3.860   1.844  0.1209  0.0616  0.2191
    1W        W34094  13.087   4.303   1.785 -0.1076  0.0762 -0.1057
    1W        W34095   4.362  29.160   0.502  0.1125 -0.0249 -0.2305
    1W        W34096  24.206   6.154   8.553 -0.5020  0.0261  0.0421
    1W        W34097  21.402  14.110   2.080  0.1052  0.0161 -0.0517
    1W        W34098  27.544   9.524   7.922  0.0048 -0.0602  0.1490
    1W        W34099   9.058  16.306   1.487 -0.1599  0.0892 -0.0478
    1W        W34100  19.732   3.385   3.141  0.1139 -0.0765  0.2352
    1W        W34101  10.249  18.288   9.228 -0.2257 -0.0043  0.0879
    1W        W34102   4.034  10.807   8.889  0.3594  0.1540  0.0649
    1W        W34103  29.345  21.780   1.704 -0.0098  0.0223 -0.2230
    1W        W34104  25.414  18.922   8.756  0.0695  0.2703  0.1082
    1W        W34105  28.943  25.051   0.838  0.1546  0.1109  0.1419
    1W        W34106  23.268  22.503   7.593 -0.1135  0.1703  0.1185
    1W        W34107   8.802   9.093   0.156  0.0694 -0.0855  0.0188
    1W        W34108   8.722  15.156   1.641 -0.0217  0.2331 -0.0700
    1W        W34109  25.970  26.671   0.507  0.0277 -0.1274 -0.2445
    1W        W34110  13.901   6.198   8.650  0.1156 -0.3132  0.1765
    1W        W34111  17.060  17.514   0.862  0.2106  0.0930  0.1148
    1W        W34112  23.316  17.954   2.336 -0.0824 -0.2457  0.1378
    1W        W34113  13.893   2.728   8.637 -0.0181  0.2172  0.0138
    1W        W34114  13.079  21.145   0.635  0.1619 -0.1162 -0.0160
    1W        W34115  15.923   3.207   1.557  0.1783 -0.0585 -0.0144
    1W        W34116  17.703   6.933   6.684  0.3455 -0.2021  0.1988
    1W        W34117  20.298  11.608   6.736 -0.1500  0.3785 -0.0856
    1W        W34118  24.131  14.528   7.446 -0.0229  0.1386  0.3437
    1W        W34119  14.452  20.903   8.784 -0.2591 -0.0639  0.1096
    1W        W34120   5.452   5.598   1.354 -0.2073 -0.4402 -0.0947
    1W        W34121  14.469  19.647   0.884 -0.0458 -0.1656 -0.0040
    1W        W34122  15.013  21.292   1.167  0.2183 -0.2680 -0.1520
    1W        W34123  13.852  14.650   1.193 -0.2604 -0.2655  0.1485
    1W        W34124  12.539  21.847   2.433 -0.0012 -0.0725 -0.1494
    1W        W34125  13.607  12.661   2.715 -0.0122 -0.0519  0.0452
    1W        W34126  29.147  21.879   1.270 -0.1285 -0.0212 -0.0147
    1W        W34127   4.586  18.384   8.055 -0.0781 -0.2316  0.1901
    1W        W34128   9.873  19.799   1.402  0.2173  0.4860  0.1176
    1W        W34129  24.746  11.933   0.353 -0.0310 -0.4033  0.0300
    1W        W34130  11.343  11.448   0.050 -0.1778  0.1973  0.1148
    1W        W34131  12.640   3.025   1.700 -0.2437  0.3951 -0.3661
    1W        W34132   5.908  30.190   8.200 -0.0536 -0.0835  0.1787
    1W        W34133   9.487  15.105   7.646 -0.0945  0.0652 -0.2282
    1W        W34134  13.239   6.313   8.845 -0.1062  0.2275 -0.1852
    1W        W34135  14.959  12.248   2.817 -0.2588  0.0070 -0.0914
    1W        W34136  24.989  21.898   6.569  0.1245  0.0688 -0.1040
    1W        W34137  26.784  25.177   8.626 -0.2761  0.2981  0.0262
    1W        W34138  25.594   0.019   1.223 -0.2379 -0.1880 -0.3641
    1W        W34139  10.175   7.334   2.065 -0.1451  0.3671  0.0504
    1W        W34140   5.112  12.627   7.701  0.0884 -0.4584  0.0609
    1W        W34141  12.684  11.295   1.889 -0.3609 -0.0368  0.1725
    1W        W34142  12.580  17.601   7.222 -0.3202  0.2011 -0.4540
    1W        W34143  29.169  15.710   9.225  0.0724 -0.1553  0.3072
    1W        W34144  18.683  17.316   0.743 -0.3807  0.0465 -0.0517
    1W        W34145  14.383  29.456   7.479 -0.3124 -0.1472 -0.3333
    1W        W34146   9.283  13.541   7.019 -0.0451  0.0399  0.2084
    1W        W34147  22.451  14.454   7.109  0.0573 -0.2693 -0.0860
    1W        W34148  29.941  14.754   7.045 -0.0281 -0.2784 -0.1642
    1W        W34149   8.378  30.059   2.109 -0.1785 -0.4188  0.2438
    1W        W34150  10.920  13.251   0.408  0.0863 -0.1074  0.1753
    1W        W34151  26.627  12.138   8.577 -0.1208  0.4098  0.0264
    1W        W34152   5.902  27.599   2.545  0.0828 -0.1087 -0.1548
    1W        W34153   8.992   9.280   1.526  0.0318  0.3341  0.4290
    1W        W34154  15.700   8.501   7.359  0.3521 -0.0206  0.0723
    1W        W34155  20.784  30.093   7.380  0.0369  0.0762  0.3549
    1W        W34156  20.864  13.694   1.871  0.3182  0.2404 -0.1896
    1W        W34157   8.197   2.543   1.396  0.0091  0.1282 -0.0445
    1W        W34158   7.628  14.142   0.032 -0.1406  0.2274  0.0626
    1W        W34159   8.987  17.505   1.891 -0.0157 -0.0169 -0.1305
    1W        W34160  21.490  11.629   8.060 -0.0050  0.3638 -0.3543
    1W        W34161  27.936  27.871   0.286  0.0001  0.2993 -0.2273
    1W        W34162  13.701  27.631   7.485 -0.1182  0.1086  0.3185
    1W        W34163   2.085   0.766   0.291 -0.3753  0.1914 -0.1334
    1W        W34164   8.354  13.723   8.184 -0.2072 -0.2515 -0.0767
    1W        W34165  17.995   7.874   7.885  0.1159 -0.2612  0.0838
    1W        W34166  23.241  16.223   1.536  0.5141  0.0231 -0.2401
    1W        W34167  15.817  16.130   1.204 -0.2087 -0.1286  0.0764
    1W        W34168   1.432   9.583   0.172  0.5481  0.2998 -0.1710
    1W        W34169   5.559   7.959   1.555  0.0130  0.0118  0.1185
    1W        W34170  15.616  10.584   1.546 -0.1032  0.1456  0.2859
    1W        W34171   1.152  28.502   7.497 -0.2313  0.0413 -0.3004
    1W        W34172  21.298  24.241   6.324  0.1410  0.0262 -0.0360
    1W        W34173  25.772   7.006   7.141  0.4099  0.2442 -0.0609
    1W        W34174  27.692   7.765   8.662  0.1645 -0.0192 -0.2955
    1W        W34175  13.888  24.107   2.284 -0.0539 -0.2626 -0.1514
    1W        W34176  23.141  14.477   8.184 -0.0022 -0.2043 -0.1348
    1W        W34177   1.924  10.332   9.079  0.0354  0.2273  0.1813
    1W        W34178  16.991  15.267   8.442  0.1238 -0.0221  0.1269
    1W        W34179   2.169   4.744   2.441  0.1771 -0.0775 -0.2174
    1W        W34180  16.425   9.286   1.448 -0.2489 -0.4253 -0.3601
    1W        W34181  20.363  24.978   7.910  0.4011 -0.2519  0.2347
    1W        W34182  23.173  11.185   8.681  0.0523  0.1464 -0.0305
    1W        W34183   3.339   2.259   8.287  0.2063 -0.1120  0.3282
    1W        W34184  22.214  14.398   6.675  0.1237 -0.1226  0.1773
    1W        W34185  23.002   2.509   7.420 -0.0266 -0.0550 -0.1735
    1W        W34186  10.218   0.970   8.895  0.2754  0.0504  0.0778
    1W        W34187  12.190   3.900   1.972  0.2029 -0.1871 -0.2105
    1W        W34188  12.458  28.577   9.093  0.1292 -0.1678  0.0132
    1W        W34189  12.495   3.804   6.864 -0.0909  0.2345  0.1329
    1W        W34190   9.777  24.863   7.111 -0.0457 -0.3698  0.0933
    1W        W34191  25.543   0.410   3.075  0.2039  0.3999  0.2279
    1W        W34192  16.206  16.266   3.083 -0.2095  0.3920 -0.1691
    1W        W34193   7.257  25.516   7.968 -0.0185  0.4086  0.0736
    1W        W34194  26.572  18.189   1.597  0.2545 -0.0288 -0.2950
    1W        W34195   9.756  22.026   8.771  0.0817  0.0034 -0.0730
    1W        W34196   5.753  13.786   8.311  0.0541 -0.0477 -0.0780
    1W        W34197  11.596   1.030   1.111  0.0003 -0.0019 -0.0478
    1W        W34198   3.726  12.480   1.609  0.1663 -0.4423  0.0453
    1W        W34199  24.003  12.153   8.379 -0.1228  0.1765 -0.0254
    1W        W34200  23.970  13.266   6.447  0.0274 -0.0753 -0.2098
    1W        W34201  22.561  20.770   6.908 -0.2678  0.0033 -0.0276
    1W        W34202  16.689  20.974   7.355  0.1742  0.4650 -0.2606
    1W        W34203  21.086   2.092   8.455  0.3403 -0.0864  0.2482
    1W        W34204   4.152   1.037   0.735  0.2304 -0.1210  0.1094
    1W        W34205   9.484   2.298   6.812  0.1402  0.1481  0.0108
    1W        W34206  11.123   9.954   7.323  0.0583  0.1383 -0.1452
    1W        W34207  14.356  17.992   1.801  0.1763 -0.1773  0.1356
    1W        W34208   3.417  29.229   1.920  0.1765 -0.2858 -0.2459
    1W        W34209  17.014  23.249   2.033  0.0256  0.0035 -0.0775
    1W        W34210  21.401  26.042   7.644  0.3534  0.0787 -0.1369
    1W        W34211   0.124  22.916   8.090  0.0101 -0.1327 -0.1398
    1W        W34212   3.139   1.809   8.422 -0.0611 -0.2364 -0.0778
    1W        W34213  20.524  11.957   1.375  0.0334 -0.2624 -0.0843
    1W        W34214  12.323  13.784   3.557 -0.1191 -0.1819  0.0666
    1W        W34215   3.850  21.345   1.345  0.0785  0.1206 -0.0609
    1W        W34216  22.531   4.477   0.111 -0.0425  0.4588  0.1189
    1W        W34217  25.731   2.564   0.860 -0.1087  0.0084  0.2425
    1W        W34218   3.498   7.626   9.140 -0.1418  0.1252  0.0958
    1W        W34219  20.861  28.777   0.448  0.3415 -0.0197  0.0454
    1W        W34220  26.319   1.522   9.113  0.1525 -0.0008  0.0639
    1W        W34221  23.189   8.058   7.717 -0.2352  0.1858 -0.2464
    1W        W34222  16.120  24.295   7.604  0.0438 -0.0512 -0.1061
    1W        W34223  18.846   4.775   1.721  0.0875 -0.3681  0.2376
    1W        W34224  18.552  25.890   8.027 -0.0500  0.2868  0.1177
    1W        W34225  24.109   8.856   6.510  0.1462 -0.0582 -0.0242
    1W        W34226   2.319   9.600   7.900 -0.2424 -0.0437 -0.0964
    1W        W34227   8.927  26.630   7.333  0.1251  0.0692  0.1130
    1W        W34228  19.841   9.495   1.859  0.1968  0.2484 -0.1236
    1W        W34229  11.104  12.073   1.385  0.1365 -0.3137  0.1647
    1W        W34230  17.043  21.933   7.238 -0.0724 -0.2854  0.0175
    1W        W34231   8.792   6.977   8.642  0.2372 -0.1199 -0.0218
    1W        W34232   4.769  27.365   9.204 -0.0745 -0.0083 -0.3364
    1W        W34233   8.932   9.103   2.569  0.2064 -0.2540  0.1634
    1W        W34234  22.064   8.085   7.400 -0.1407  0.1006  0.1373
    1W        W34235  14.762   6.000   6.530 -0.0618  0.2257 -0.1385
    1W        W34236  18.629  22.066   0.046  0.1703 -0.1839  0.0647
    1W        W34237   7.810   3.354   2.829  0.0093 -0.2860 -0.2582
    1W        W34238  13.803   5.685   1.611  0.2878  0.1057  0.1471
    1W        W34239  20.642  30.269   2.635 -0.4390 -0.3164  0.1496
    1W        W34240   8.178   1.527   7.145  0.0257  0.1618  0.3260
    1W        W34241  13.568  25.064   2.131 -0.2200  0.0839 -0.0416
    1W        W34242  13.413   2.703   1.386  0.2126 -0.1022 -0.2108
    1W        W34243  26.280  26.201   2.301  0.0292 -0.1470  0.2459
    1W        W34244   4.348  21.067   1.325 -0.1457  0.3521 -0.1114
    1W        W34245   7.327  12.440   0.492 -0.0472 -0.0781  0.2759
    1W        W34246   8.647  17.176   7.978 -0.1019  0.0744  0.0871
    1W        W34247  18.111  29.026   1.742 -0.3494 -0.0164  0.1037
    1W        W34248  15.799  15.418   7.167 -0.0550  0.4394  0.1323
    1W        W34249  22.440  22.041   2.071  0.1027  0.0066 -0.1122
    1W        W34250   5.711  21.980   9.185  0.2370  0.1498  0.2096
    1W        W34251   9.964  15.909   6.853  0.0601 -0.2819 -0.1650
    1W        W34252  30.236  26.440   9.028 -0.1808  0.0152 -0.0998
    1W        W34253  21.570  10.838   2.738 -0.2428  0.0976 -0.0663
    1W        W34254  12.775  26.471   0.338 -0.1111 -0.1809 -0.0699
    1W        W34255  16.920   1.638   2.880  0.1156  0.2388 -0.0320
    1W        W34256   6.228  29.873   2.792  0.1699  0.3390 -0.3732
    1W        W34257   8.963  25.136   0.598 -0.0961 -0.2270  0.1896
    1W        W34258  15.710  19.348   1.215 -0.0067  0.4532 -0.1246
    1W        W34259   0.784   3.520   1.156  0.1300  0.1419 -0.2890
    1W        W34260  21.272   4.717   8.136 -0.1627 -0.2173 -0.0563
    1W        W34261  26.308  25.812   8.761 -0.3066 -0.2857  0.3168
    1W        W34262  12.957  21.814   7.561 -0.0837  0.0925  0.0315
    1W        W34263  20.236  12.354   8.971 -0.0284  0.0104 -0.3181
    1W        W34264  26.709   3.616   2.066  0.1803  0.1620 -0.2999
    1W        W34265  29.567  29.390   7.918  0.0402 -0.0563 -0.0368
    1W        W34266  24.629  12.276   7.735 -0.1403 -0.0966  0.2093
    1W        W34267   1.371  26.953   9.209  0.0386 -0.3616  0.0773
    1W        W34268  26.052  10.100   0.936  0.2264  0.2011 -0.1611
    1W        W34269   6.400  29.992   8.970  0.0920 -0.0306  0.2147
    1W        W34270  21.845  15.684   8.323 -0.2382 -0.2554 -0.0844
    1W        W34271  25.844   2.570   2.233  0.1693 -0.1536  0.0584
    1W        W34272  18.505  21.286   1.223 -0.0823  0.0193 -0.0590
    1W        W34273  24.638  23.797   2.153  0.0733 -0.0773 -0.0729
    1W        W34274  29.531   0.662   1.580 -0.3474  0.0701 -0.2578
    1W        W34275  30.129  26.819   3.279 -0.1506  0.2293 -0.1123
    1W        W34276  19.608  11.080   1.718  0.2468 -0.2377  0.1812
    1W        W34277   3.823  18.203   9.000 -0.0542 -0.0215 -0.1031
    1W        W34278  28.087   9.854   7.676  0.1685  0.0688  0.1546
    1W        W34279  29.370   8.052   7.577 -0.4891 -0.0097 -0.1497
    1W        W34280  15.197  18.472   1.607 -0.1655  0.3262 -0.2996
    1W        W34281  10.696  20.823   8.585  0.2182  0.0220  0.0599
    1W        W34282  12.474  18.740   0.394  0.3631 -0.1275  0.0761
    1W        W34283  24.999   3.889   1.509  0.0386  0.0145  0.0782
    1W        W34284   6.055   8.212   8.657  0.0377  0.3040 -0.1141
    1W        W34285   7.025  28.342   1.208 -0.0045 -0.0803 -0.0412
    1W        W34286   9.410  16.604   7.633 -0.3808  0.0348 -0.2963
    1W        W34287   6.491  14.417   8.859 -0.1786 -0.0656  0.1697
    1W        W34288   9.653   8.794   1.105 -0.1297  0.0245 -0.1499
    1W        W34289  15.102  11.567   3.634 -0.0991 -0.2311  0.0998
    1W        W34290  12.299  27.085   6.954 -0.1785 -0.1387  0.1158
    1W        W34291  11.726  15.588   0.316  0.1897 -0.0723 -0.0870
    1W        W34292   0.802  11.563   0.141  0.0080 -0.0952 -0.3099
    1W        W34293  25.560  21.519   1.037  0.3223 -0.1604  0.0348
    1W        W34294   6.083  19.460   8.156 -0.0356 -0.0395 -0.0687
    1W        W34295  10.991  22.200   7.838  0.0293 -0.2493  0.2724
    1W        W34296  27.229   5.073   0.393  0.1493 -0.3149 -0.0233
    1W        W34297   4.752   8.891   7.280 -0.1451  0.1531  0.0798
    1W        W34298  15.523  20.269   6.280 -0.0584  0.2380  0.1411
    1W        W34299  15.187   7.384   0.091 -0.0268 -0.0949 -0.1347
    1W        W34300  27.628   7.701   6.949 -0.0163 -0.3018 -0.2354
    1W        W34301  12.148  26.669   7.175 -0.0622 -0.3060 -0.1419
    1W        W34302  27.299  17.721   8.892 -0.1535 -0.1144  0.0147
    1W        W34303  26.439  14.231   6.717  0.0997 -0.0025 -0.0145
    1W        W34304  29.229   4.871   7.585 -0.3478  0.0163  0.2205
    1W        W34305   6.630   5.250   8.035 -0.0439  0.0600  0.3697
    1W        W34306  22.714  20.750   0.033  0.0175 -0.2157 -0.0105
    1W        W34307  18.083  22.341   6.478 -0.0734  0.1358 -0.0188
    1W        W34308   5.984   8.818   1.790 -0.0456 -0.3375 -0.2879
    1W        W34309  25.921   9.313   6.602  0.2276 -0.0025  0.0311
    1W        W34310  17.288  14.129   8.513  0.2077  0.0147 -0.0648
    1W        W34311  23.869  14.417   6.060  0.0282  0.2178  0.1543
    1W        W34312  23.376  10.468   1.564 -0.1845  0.1510 -0.1350
    1W        W34313  13.861  15.067   0.849  0.0246  0.0399 -0.0579
    1W        W34314  10.938  26.257   8.159 -0.2487 -0.0152 -0.3201
    1W        W34315  20.323  25.039   1.626 -0.1542  0.0983 -0.0411
    1W        W34316  29.307   0.470   1.207  0.2727  0.1084  0.3625
    1W        W34317   4.727   0.348   1.200 -0.0016  0.2013  0.0204
    1W        W34318   6.823  27.273   8.980 -0.1337  0.1543 -0.0365
    1W        W34319   0.532  14.410   0.210  0.0535  0.0307  0.1449
    1W        W34320  28.724  19.118   0.227 -0.1251  0.0561  0.1034
    1W        W34321  19.403  27.678   1.912  0.0308  0.1509 -0.0241
    1W        W34322   7.731   6.304   0.823  0.0136  0.3681 -0.1849
    1W        W34323  19.385  29.702   6.551 -0.1607  0.1533  0.1299
    1W        W34324   7.217   1.158   7.395 -0.0450 -0.2102  0.2916
    1W        W34325  14.629   1.241   0.715  0.1130  0.2271  0.0088
    1W        W34326  11.900  13.051   1.521 -0.4069 -0.0532  0.0234
    1W        W34327  10.295  26.294   7.772 -0.1681  0.1928  0.1085
    1W        W34328  11.747  12.261   7.342  0.0397  0.1209  0.3387
    1W        W34329  28.375  28.125   0.957  0.4042  0.0406 -0.0028
    1W        W34330  19.176  27.704   8.925  0.0749  0.1614 -0.0860
    1W        W34331  26.756  25.478   1.976  0.0026  0.0429  0.2431
    1W        W34332  25.793  11.660   2.528 -0.0018  0.2139 -0.0185
    1W        W34333  18.879  17.039   7.259 -0.2287  0.2941 -0.1074
    1W        W34334  13.118  19.901   2.244 -0.2849  0.1676 -0.0348
    1W        W34335   5.623  26.331   2.043  0.0042  0.5196  0.0789
    1W        W34336  20.467   3.582   1.144 -0.1955  0.3894 -0.1891
    1W        W34337  28.806   6.513   2.074 -0.0162  0.0912 -0.0355
    1W        W34338   5.740  24.690   2.323 -0.2567  0.0204  0.0857
    1W        W34339  24.359  22.432   8.049 -0.1741  0.0275  0.1721
    1W        W34340  22.567  23.411   1.012 -0.0186  0.2605 -0.1905
    1W        W34341   6.991  13.298   1.524 -0.1348  0.0672 -0.0341
    1W        W34342   8.475  29.327   8.198  0.0790  0.2550  0.0384
    1W        W34343  21.493  20.130   0.665 -0.0873  0.2384  0.1631
    1W        W34344  21.666   1.224   3.226  0.1122  0.0950 -0.1481
    1W        W34345   4.049  23.601   2.008  0.0267  0.0140 -0.0905
    1W        W34346   7.866   7.079   8.126 -0.0390  0.0425 -0.0273
    1W        W34347  12.155   6.657   7.970 -0.2520 -0.0460  0.1682
    1W        W34348  18.257  11.538   2.432 -0.0658 -0.1339 -0.3127
    1W        W34349  20.286  27.469   9.235 -0.0947 -0.2450 -0.0340
    1W        W34350  11.562  11.929   0.004 -0.2444 -0.0404 -0.3016
    1W        W34351  26.418  22.471   8.384  0.2676  0.1680  0.0749
    1W        W34352  14.644  26.219   7.504 -0.1053  0.1134 -0.0753
    1W        W34353  13.437  17.580   2.156  0.1597 -0.3491  0.0661
    1W        W34354   1.829  16.295   7.324  0.0628 -0.0750  0.3353
    1W        W34355   6.312   1.204   0.607 -0.1155 -0.0541 -0.3332
    1W        W34356   1.206  20.661   1.010 -0.0195  0.3263  0.0670
    1W        W34357  10.216  12.066   0.394  0.3310  0.0764 -0.2840
    1W        W34358  27.676   1.724   3.381 -0.1616 -0.1073 -0.0708
    1W        W34359  22.300  13.784   0.988 -0.0486  0.3895 -0.1577
    1W        W34360   4.731  28.084   1.242  0.2375  0.1740 -0.3343
    1W        W34361  16.467   5.581   1.398 -0.1171 -0.2620  0.4837
    1W        W34362   9.367  11.857   1.184 -0.0831  0.1026 -0.0137
    1W        W34363  28.485  29.013   2.120  0.2554 -0.2637 -0.1109
    1W        W34364  16.895  27.574   7.969  0.1284  0.1251 -0.0956
    1W        W34365  13.944  29.996   1.159  0.1792 -0.5171  0.1271
    1W        W34366  30.298  23.177   0.912 -0.1423  0.0632 -0.0875
    1W        W34367  28.610  17.991   0.136  0.0624 -0.1203 -0.0962
    1W        W34368  18.231  25.840   8.540 -0.1214  0.3937  0.0088
    1W        W34369  28.503  27.185   9.180  0.1330  0.1858 -0.2344
    1W        W34370  15.916  30.062   6.860 -0.1643 -0.2774  0.1933
    1W        W34371   0.608   2.034   3.252  0.1553 -0.4012  0.0823
    1W        W34372  11.583   5.631   1.031 -0.2796  0.4622 -0.0403
    1W        W34373   0.386   4.199   7.391 -0.1473  0.0559 -0.1886
    1W        W34374  27.775  28.424   2.663 -0.0655 -0.1461 -0.2515
    1W        W34375  29.198  10.733   2.014  0.3667 -0.0211  0.4597
    1W        W34376  20.041  17.879   5.842 -0.1409  0.0468  0.1054
    1W        W34377   3.696   9.397   0.962 -0.2898  0.1358 -0.2556
    1W        W34378  17.397  15.283   7.039  0.1251  0.1875  0.0114
    1W        W34379  11.038  12.675   0.454  0.2468  0.4007 -0.1988
    1W        W34380  11.891  14.542   1.403  0.2830 -0.1269 -0.1158
    1W        W34381  26.965  17.515   7.942  0.3966  0.0048 -0.0745
    1W        W34382   5.511   4.127   3.795 -0.0054 -0.1818  0.0020
    1W        W34383   9.192  29.507   3.313 -0.0937 -0.2737  0.1549
    1W        W34384  27.124  19.570   6.143  0.1392 -0.0910 -0.0987
    1W        W34385   8.331  14.325   7.553 -0.2942  0.0445 -0.1195
    1W        W34386   6.041   4.516   0.909  0.2156 -0.2208 -0.0705
    1W        W34387  15.993   1.690   8.355  0.0098 -0.4915  0.0959
    1W        W34388  16.320  28.556   8.244 -0.0887 -0.1667 -0.1264
    1W        W34389   1.243  29.413   8.408  0.2899 -0.1792 -0.0074
    1W        W34390  19.809  14.818   2.459  0.1281  0.0567  0.0308
    1W        W34391  18.842  10.781   6.043 -0.3130 -0.0573  0.1078
    1W        W34392   3.775  15.335   7.104  0.3644 -0.0323 -0.0742
    1W        W34393  14.034  16.556   9.224  0.0171 -0.2426 -0.0172
    1W        W34394   7.503  18.318   8.531 -0.0797  0.0439  0.1904
    1W        W34395  22.017   0.597   0.549 -0.3874 -0.1037 -0.0210
    1W        W34396  24.334  28.049   8.279 -0.2654  0.1208  0.0977
    1W        W34397  23.953  16.945   9.256  0.0126 -0.0247 -0.1687
    1W        W34398  19.857  16.127   0.045  0.0517 -0.4701 -0.0202
    1W        W34399  16.033  22.866   7.185  0.0265  0.3256  0.1558
    1W        W34400   7.623   7.608   2.653 -0.0231 -0.2059 -0.1123
    1W        W34401  13.345  23.177   7.180  0.1614 -0.2247  0.1799
    1W        W34402  17.226   4.627   7.395  0.0895 -0.1050 -0.3509
    1W        W34403   1.967  16.298   7.938  0.0308  0.0325  0.2933
    1W        W34404   9.023  17.761   0.525  0.0236 -0.0071 -0.1759
    1W        W34405  14.425  20.252   2.035 -0.1296 -0.3180 -0.1277
    1W        W34406   2.895  15.690   7.087  0.2105 -0.3146 -0.0445
    1W        W34407   8.474  30.232   7.513  0.0818 -0.1567  0.0226
    1W        W34408  13.022  15.626   9.008 -0.1679 -0.1273 -0.0647
    1W        W34409  29.915  29.554   2.315 -0.4626  0.0037  0.0441
    1W        W34410  12.581  16.110   6.043 -0.2361 -0.2719  0.0857
    1W        W34411   3.533  18.677   1.787 -0.0179 -0.2175 -0.1031
    1W        W34412  14.860  29.479   7.617 -0.0427  0.0615 -0.1302
    1W        W34413   8.222  22.990   6.197  0.1208  0.2426  0.1542
    1W        W34414  29.503   3.868   2.929 -0.0125  0.1460  0.0848
    1W        W34415  14.843  28.178   8.887 -0.0935  0.2287 -0.1349
    1W        W34416  13.347   6.968   7.827 -0.2575  0.1885  0.0041
    1W        W34417   2.692  15.614   7.953 -0.0128 -0.1538  0.2199
    1W        W34418  14.748   7.173   9.070 -0.3523  0.2798  0.2160
    1W        W34419  27.933  28.256   1.708  0.2469  0.0486 -0.1604
    1W        W34420  23.267  20.309   6.605  0.0684 -0.0869 -0.2331
    1W        W34421  13.967  16.619   6.912  0.1008 -0.1158  0.2917
    1W        W34422  26.936   5.588   0.261  0.0490 -0.2447  0.0899
    1W        W34423   2.087  24.776   1.916 -0.0667 -0.1832  0.3099
    1W        W34424  15.779  12.081   8.608 -0.4563 -0.1177 -0.0372
    1W        W34425  16.451   9.087   0.632  0.3705 -0.1051  0.2952
    1W        W34426  29.825  27.340   8.739 -0.0414 -0.2607  0.1219
    1W        W34427  15.962  28.912   8.336 -0.2696 -0.3244  0.0242
    1W        W34428  15.280  12.093   8.526 -0.1421  0.3355  0.1391
    1W        W34429   9.646  22.600   2.359  0.1454  0.0863  0.1537
    1W        W34430  23.000  29.174   1.984  0.0424 -0.0789 -0.0025
    1W        W34431  23.249  11.650   1.515 -0.1509  0.1200  0.1085
    1W        W34432  20.431  18.762   0.755 -0.1016 -0.0545  0.0088
    1W        W34433   0.730   2.572   7.242 -0.0956 -0.0205 -0.2164
    1W        W34434  16.202  15.193   0.771 -0.0543  0.2657  0.2778
    1W        W34435   6.795  10.317   1.227  0.0224  0.0795  0.2429
    1W        W34436  19.329  10.161   0.688 -0.3581  0.0072  0.0309
    1W        W34437  28.122  19.480   7.282 -0.1150  0.1667 -0.0036
    1W        W34438  12.481  18.559   6.235  0.1875  0.0578  0.1534
    1W        W34439  13.693  29.209   8.166  0.2929 -0.1148  0.2676
    1W        W34440  28.302  26.787   1.891 -0.1851 -0.1334 -0.1916
    1W        W34441   3.784  22.212   8.677 -0.0568 -0.1642  0.1888
    1W        W34442  25.519  20.942   5.997  0.0047 -0.0822 -0.4756
    1W        W34443  10.701   1.746   7.128  0.0692 -0.0387  0.1510
    1W        W34444   1.325  27.074   1.295  0.1605  0.1850 -0.2600
    1W        W34445  28.322  28.462   1.497  0.1086 -0.0466  0.5319
    1W        W34446  25.727  24.499   9.088 -0.0729 -0.2681 -0.0343
    1W        W34447  11.631  12.587   7.744  0.2425 -0.3364 -0.0106
    1W        W34448  25.227   3.766   0.249  0.0977 -0.2533  0.0947
    1W        W34449   4.277  28.562   8.828 -0.5049  0.0360  0.0501
    1W        W34450   6.197  16.001   1.994 -0.0827 -0.2906  0.1544
    1W        W34451   5.182   8.032   2.518 -0.2260 -0.1462 -0.0792
    1W        W34452   6.872  14.076   0.297  0.0051  0.2746  0.2986
    1W        W34453  29.683  24.609   8.528  0.2056 -0.0484  0.0227
    1W        W34454  18.001   3.080   7.111  0.3733  0.1432 -0.3742
    1W        W34455  16.391  23.702   6.950 -0.3530  0.1115 -0.0223
    1W        W34456  18.958   1.061   0.083  0.0409 -0.1875  0.0942
    1W        W34457   4.169   9.930   7.840 -0.1210  0.0261  0.3200
    1W        W34458  10.831   2.224   6.930 -0.1445  0.2198 -0.0247
    1W        W34459  29.189  24.073   0.944  0.0295 -0.1628 -0.0128
    1W        W34460  27.056   0.107   0.283 -0.3199  0.2114  0.1366
    1W        W34461  15.820   7.060   7.967  0.1070  0.0263 -0.2088
    1W        W34462   2.110   6.656   8.721  0.1219  0.1232 -0.0883
    1W        W34463   9.901   7.705   8.121  0.0621  0.1990 -0.3135
    1W        W34464  29.690  21.543   7.443 -0.1964  0.1242 -0.1159
    1W        W34465  12.773   2.483   7.733 -0.2809 -0.0364  0.2546
    1W        W34466  14.867   6.847   8.092 -0.1909 -0.1792 -0.1923
    1W        W34467   1.774  14.870   0.947 -0.0027  0.1304  0.2148
    1W        W34468   9.644  17.587   7.491  0.1196 -0.1099 -0.0440
    1W        W34469  20.017  21.970   0.202  0.4614  0.2374  0.1609
    1W        W34470   6.666  22.441   1.392  0.2915 -0.1288 -0.1645
    1W        W34471   2.071  12.858   0.795  0.1058 -0.1118 -0.1754
    1W        W34472  13.088  14.080   2.430 -0.0445 -0.1303 -0.3126
    1W        W34473  11.203   7.561   2.023  0.2411 -0.0245 -0.2410
    1W        W34474  15.117  16.940   5.941 -0.0044  0.0499  0.0967
    1W        W34475   6.778  11.642   7.080  0.0080  0.4551 -0.0974
    1W        W34476   3.800  12.468   8.815  0.1574  0.1266 -0.0918
    1W        W34477   8.951   2.964   9.199  0.2670 -0.0741  0.2771
    1W        W34478   0.545  14.455   8.598  0.1170 -0.1006  0.2741
    1W        W34479  18.904  18.050   7.150 -0.1409 -0.0034  0.2266
    1W        W34480  23.254   5.492   2.504 -0.0601 -0.0568  0.0286
    1W        W34481  22.737  18.142   7.865 -0.3928  0.0649  0.0375
    1W        W34482  12.846  12.594   8.372  0.0065  0.0367  0.1046
    1W        W34483   1.005  18.912   0.725  0.0924  0.0965  0.1544
    1W        W34484  29.875  19.888   0.921  0.1132 -0.3300  0.0829
    1W        W34485  10.347  25.183   1.339  0.1915  0.0496 -0.1116
    1W        W34486  18.144   1.305   1.732  0.3091 -0.2032 -0.1099
    1W        W34487  12.304  11.690   2.788  0.0807  0.0884  0.1139
    1W        W34488  20.287  17.840   6.720  0.0872  0.0849 -0.0583
    1W        W34489   9.864   1.239   8.703  0.3236 -0.1405  0.0444
    1W        W34490  15.871  22.894   0.023 -0.2256  0.0892  0.4305
    1W        W34491   3.660  13.400   6.882  0.0495  0.0863 -0.4841
    1W        W34492  13.105   0.223   8.215 -0.0454 -0.1067  0.1137
    1W        W34493   5.871   6.238   1.627  0.1679  0.1919  0.0304
    1W        W34494  18.603  27.424   7.212  0.1335 -0.0729 -0.1143
    1W        W34495  13.641   1.651   7.471  0.2271  0.0432  0.2695
    1W        W34496   1.571   1.295   2.108 -0.2441 -0.3947  0.1558
    1W        W34497  17.445  26.758   8.383 -0.0699 -0.0110 -0.1975
    1W        W34498  27.763  16.307   1.656  0.1359 -0.2178  0.2371
    1W        W34499   2.313  14.146   8.300 -0.3258 -0.0209  0.4727
    1W        W34500  14.263   8.868   7.889 -0.1332 -0.3601  0.0664
    1W        W34501   2.741   2.559   1.424 -0.0042 -0.1769  0.1029
    1W        W34502   9.782  20.123   7.288  0.1605 -0.3380  0.0675
    1W        W34503  13.559  11.572   8.332 -0.0673 -0.0101  0.0277
    1W        W34504  29.334  25.584   8.319 -0.1564 -0.1324  0.0296
    1W        W34505  18.112  24.686   8.114  0.0234 -0.0086  0.2380
    1W        W34506  18.411  19.200   7.336  0.2301 -0.0982 -0.0440
    1W        W34507   1.672  22.946   0.333 -0.2833 -0.1097 -0.1246
    1W        W34508  30.101   8.701   0.108  0.2200 -0.2648  0.2555
    1W        W34509   1.649  27.193   2.431  0.0607  0.0693  0.1135
    1W        W34510  15.041  10.902   0.248  0.4337  0.2781  0.0999
    1W        W34511  24.645  30.163   2.831 -0.0064  0.1215  0.2695
    1W        W34512  28.402   2.806   3.145 -0.0582 -0.1100 -0.0888
    1W        W34513   5.272   3.592   1.418  0.0137  0.1913  0.3175
    1W        W34514  20.716   1.635   1.272  0.1509 -0.0837  0.4224
    1W        W34515   9.224   8.863   1.343  0.0018  0.5070  0.0474
    1W        W34516  15.740  20.042   2.227  0.0556 -0.2202  0.0758
    1W        W34517  16.939  29.497   6.652  0.1230 -0.0385  0.0060
    1W        W34518  21.774  23.432   2.552  0.0954 -0.0697  0.0575
    1W        W34519  15.115  15.050   2.850  0.1016  0.1138  0.0474
    1W        W34520  10.016  26.375   3.058  0.2268 -0.1740 -0.0076
    1W        W34521  16.516  11.299   6.555  0.0263 -0.0087  0.1183
    1W        W34522   2.808  22.089   7.587 -0.2818  0.2523  0.0716
    1W        W34523  28.314  18.059   7.891 -0.0651  0.0599 -0.0236
    1W        W34524   3.153   7.657   0.255 -0.1905  0.1537  0.0538
    1W        W34525  20.113  11.097   1.989 -0.2355  0.1988  0.1025
    1W        W34526   9.777  14.057   6.787 -0.1543  0.0782  0.0631
    1W        W34527  23.615  27.345   8.737 -0.0282 -0.0632 -0.1849
    1W        W34528   9.072  20.382   6.506  0.1841  0.2283  0.1608
    1W        W34529  11.102  10.674   1.826 -0.2991 -0.2967 -0.0991
    1W        W34530   9.487  17.158   2.892 -0.0664  0.1381 -0.1294
    1W        W34531  29.374   5.875   8.023  0.1312  0.1191 -0.3942
    1W        W34532  17.076  30.010   8.726 -0.2212 -0.0547 -0.0851
    1W        W34533  13.333  14.994   3.376  0.0559 -0.0657 -0.1555
    1W        W34534  15.567  25.485   7.080 -0.0298  0.0631 -0.0308
    1W        W34535   7.617   1.558   2.795 -0.1460  0.2616  0.2994
    1W        W34536  20.702  24.132   6.671 -0.0816 -0.1984  0.2202
    1W        W34537  29.871  25.679   8.196 -0.0012  0.1025 -0.0797
    1W        W34538  25.878   0.766   8.391 -0.0319  0.0961 -0.0508
    1W        W34539  24.749  11.785   8.091  0.0969 -0.1588  0.4465
    1W        W34540  14.522  24.867   0.934 -0.2284 -0.2601  0.1146
    1W        W34541  26.089  19.082   0.069 -0.1660 -0.1259 -0.0244
    1W        W34542  22.798  16.061   8.527  0.0860 -0.0046 -0.0101
    1W        W34543  11.778   9.235   1.390  0.1371  0.0200 -0.0697
    1W        W34544  27.210  21.438   7.225 -0.1454 -0.0897 -0.0204
    1W        W34545  27.029  27.308   1.583 -0.0255  0.3480  0.1164
    1W        W34546   1.097   3.517   9.161  0.1748 -0.1186 -0.4068
    1W        W34547   5.254  11.886   8.048  0.2900  0.2131 -0.0930
    1W        W34548  22.252   9.718   7.688  0.2091  0.4074  0.1653
    1W        W34549  24.876   0.184   2.551  0.1676 -0.0811  0.0378
    1W        W34550   2.068  11.784   1.414  0.1663 -0.1691 -0.0893
    1W        W34551   7.015  11.860   2.815  0.1192 -0.2791  0.0703
    1W        W34552   3.211  20.875   8.283 -0.1877 -0.1078 -0.0287
    1W        W34553  20.333  21.127   0.121  0.0923 -0.0249 -0.0374
    1W        W34554  23.557  11.402   8.394 -0.0433 -0.0136 -0.0899
    1W        W34555  19.172  17.613   1.916  0.3516 -0.1267 -0.0806
    1W        W34556   0.543  22.717   2.361  0.0283  0.1663 -0.0865
    1W        W34557  18.908   0.438   1.831  0.1968  0.0242  0.3990
    1W        W34558   8.506  20.211   7.909 -0.0640  0.0165  0.2677
    1W        W34559   0.294  26.191   0.952 -0.0608  0.0959  0.3158
    1W        W34560  22.536  29.572   0.905 -0.3907  0.3108  0.0209
    1W        W34561  26.631   5.324   2.632  0.0819  0.1930 -0.1464
    1W        W34562  19.126   2.355   2.384 -0.0991  0.2904  0.1885
    1W        W34563   7.280  10.206   2.407  0.1590 -0.1496 -0.0058
    1W        W34564  25.994  29.778   7.576  0.1976  0.2713  0.1445
    1W        W34565  28.262  15.087   8.294 -0.1726  0.2483 -0.0105
    1W        W34566   6.251  28.140   1.158  0.1159  0.0474  0.2266
    1W        W34567  11.300   5.980   0.689  0.1139  0.2928  0.0653
    1W        W34568  25.900  16.892   1.390  0.0913  0.1264  0.0091
    1W        W34569  20.243  16.272   8.285  0.0712  0.3616 -0.1058
    1W        W34570  23.063   6.429   0.437 -0.2104 -0.1366 -0.1694
    1W        W34571  24.170  16.546   1.523  0.2210 -0.0858 -0.1064
    1W        W34572  29.241  25.912   1.169  0.0402 -0.0219 -0.0820
    1W        W34573  15.533   4.535   7.509  0.1825  0.1042  0.2286
    1W        W34574   9.037   2.112   8.238  0.0374  0.2423 -0.2379
    1W        W34575  19.822  29.322   9.159  0.4451  0.0040  0.2506
    1W        W34576  23.322   9.679   8.416 -0.2002 -0.2348 -0.2633
    1W        W34577  25.386   0.444   8.422  0.3062  0.1542 -0.0276
    1W        W34578  15.335  18.101   0.686 -0.0564  0.2079  0.1126
    1W        W34579   2.423   7.195   2.007  0.1575  0.1391  0.2386
    1W        W34580   8.436  28.915   1.445  0.3027  0.0176 -0.1799
    1W        W34581  18.470   5.959   8.963 -0.2251 -0.0600  0.1450
    1W        W34582  27.930   4.662   1.593  0.3332 -0.2781  0.2755
    1W        W34583   7.189  18.456   0.211  0.0438 -0.1487  0.2532
    1W        W34584  11.550  17.915   7.320 -0.0644 -0.0887 -0.0357
    1W        W34585  23.627  26.332   7.583  0.0114  0.1622 -0.0726
    1W        W34586   7.708  19.548   7.974  0.0580 -0.2427  0.1554
    1W        W34587  19.508  10.121   2.085  0.0908  0.1342 -0.2014
    1W        W34588  26.315  28.687   2.283  0.0260 -0.0763  0.0059
    1W        W34589  17.152  26.448   6.165 -0.0142  0.0994 -0.5231
    1W        W34590  19.209   6.711   0.595  0.1469  0.4673  0.0572
    1W        W34591   4.076  24.092   2.024  0.0223 -0.1858 -0.2952
    1W        W34592  19.239  19.983   1.137 -0.3048  0.2685  0.3211
    1W        W34593  14.029  29.625   6.476 -0.1060  0.1359 -0.2093
    1W        W34594   0.983   4.381   8.035  0.2015  0.2349  0.2048
    1W        W34595  28.490   1.490   3.359  0.2094 -0.0603  0.2121
    1W        W34596   3.402   7.725   2.051 -0.2710  0.0892 -0.2847
    1W        W34597  17.616  17.825   7.776 -0.2107  0.2502  0.0385
    1W        W34598  13.974   9.434   1.648 -0.2419  0.0992 -0.0995
    1W        W34599   9.064  26.620   6.786 -0.0461 -0.0548 -0.1611
    1W        W34600  14.372   5.826   1.486  0.3949 -0.2709 -0.0094
    1W        W34601  25.705  11.680   7.439 -0.0579  0.1758 -0.0094
    1W        W34602   1.302   3.161   2.359 -0.1865 -0.0126 -0.1256
    1W        W34603  10.705  10.379   8.018 -0.0151 -0.0949 -0.3070
    1W        W34604  17.022  28.665   3.246 -0.2084  0.1111  0.2699
    1W        W34605  27.206  16.401   0.748 -0.1887  0.1335 -0.0914
    1W        W34606  26.903  11.614   6.211 -0.0244  0.1966 -0.2012
    1W        W34607  22.972  21.147   8.559 -0.1421  0.2299  0.0171
    1W        W34608  28.234  24.524   8.375 -0.0614  0.0222  0.2269
    1W        W34609   1.847  24.489   2.414  0.2552 -0.2753  0.1286
    1W        W34610   6.293  14.820   0.438  0.1878 -0.1964 -0.2766
    1W        W34611   8.987   1.768   8.651  0.4016  0.2561 -0.0015
    1W        W34612  28.018   9.707   7.161  0.1778  0.0586 -0.0185
    1W        W34613  18.305  29.338   2.997  0.0672 -0.0466 -0.1758
    1W        W34614  20.898  13.444   1.319 -0.1236 -0.0613 -0.0135
    1W        W34615  21.230   8.155   7.326  0.0824 -0.0135 -0.0868
    1W        W34616   7.058  21.147   1.442  0.2243 -0.1607  0.1544
    1W        W34617  14.177   7.319   6.629 -0.0714  0.0675 -0.1036
    1W        W34618  13.110  12.058   3.040 -0.2836  0.0172  0.0714
    1W        W34619   8.249  11.670   8.183  0.1751 -0.3059 -0.2822
    1W        W34620  24.668   2.352   7.767  0.0243 -0.1102 -0.1108
    1W        W34621   5.271  26.601   6.295  0.2306 -0.0668  0.1158
    1W        W34622   2.355  20.239   8.903  0.0227 -0.1322 -0.0816
    1W        W34623   8.644  29.160   1.822  0.3020 -0.1979 -0.2056
    1W        W34624  26.613  17.258   9.258  0.0449  0.1621 -0.0463
    1W        W34625  14.505  11.027   9.140 -0.0401  0.1696  0.5155
    1W        W34626  17.874  24.106   2.117 -0.0521 -0.0736 -0.3588
    1W        W34627  10.557  19.832   2.303  0.0088 -0.1804 -0.1136
    1W        W34628   8.595  30.117   9.020  0.0553  0.1752 -0.2669
    1W        W34629  20.711   8.783   7.161  0.0197  0.0759  0.2076
    1W        W34630  16.633  18.035   7.917 -0.2093 -0.2875  0.1269
    1W        W34631  11.459  11.343   0.663 -0.2391  0.2777 -0.2494
    1W        W34632  13.239  17.700   2.599  0.0250 -0.0815  0.0482
    1W        W34633   4.842  25.369   3.247 -0.1616 -0.4585 -0.3420
    1W        W34634   5.413  15.371   0.198 -0.0563  0.2742 -0.1502
    1W        W34635   9.285   5.846   8.215 -0.1704  0.0819  0.1546
    1W        W34636  27.619   2.222   7.977  0.1755  0.0146 -0.0695
    1W        W34637  21.023  25.855   0.055  0.0775 -0.0063 -0.2162
    1W        W34638  27.635   6.445   3.316  0.3573 -0.3170  0.1084
    1W        W34639   4.353  16.167   6.995 -0.2827  0.1429  0.2718
    1W        W34640   7.899  18.807   1.417 -0.2879  0.1648  0.1187
    1W        W34641  13.979  29.179   6.660 -0.1235 -0.2407 -0.0734
    1W        W34642  27.204   1.551   3.290 -0.3094 -0.0821 -0.2029
    1W        W34643   6.877   0.797   7.417  0.0407 -0.0471 -0.2598
    1W        W34644  25.561  25.740   1.024 -0.2524  0.0389 -0.2396
    1W        W34645   5.989  10.537   7.805  0.1531 -0.2439 -0.1603
    1W        W34646   2.618  20.816   7.507 -0.1003 -0.0645 -0.1429
    1W        W34647  17.647  11.357   6.980  0.0222  0.0148  0.2511
    1W        W34648   2.506  23.923   1.242 -0.0058 -0.0589  0.2099
    1W        W34649   8.635   0.942   2.108 -0.1368 -0.0934 -0.1607
    1W        W34650   9.811  11.507   8.517  0.1484 -0.2201 -0.3572
    1W        W34651  25.781   0.114   3.411  0.0201  0.1854  0.2524
    1W        W34652  12.912   2.073   7.435  0.0911  0.2103  0.1218
    1W        W34653  26.060  11.329   0.223 -0.0246  0.2089 -0.1067
    1W        W34654  11.578  19.730   1.627  0.0207 -0.0049  0.0336
    1W        W34655   4.739   3.876   2.169 -0.0637 -0.3155  0.1903
    1W        W34656  28.842  27.277   3.354 -0.1004 -0.2378  0.3251
    1W        W34657   8.529   5.385   6.752 -0.4526 -0.0820  0.0288
    1W        W34658  16.267   1.652   1.764 -0.0737  0.3523 -0.0057
    1W        W34659  13.373  11.147   6.934  0.1396 -0.0149  0.1316
    1W        W34660   0.216   2.002   1.841  0.3579  0.1419  0.0937
    1W        W34661  10.444  25.610   1.064 -0.1385 -0.0005  0.1478
    1W        W34662  18.645  27.169   2.443 -0.2940  0.0090  0.2165
    1W        W34663   4.654   0.056   8.317  0.1007 -0.1424  0.1504
    1W        W34664  17.988   0.152   8.122  0.3500  0.0243  0.1482
    1W        W34665  13.161  25.431   0.434 -0.2690 -0.0548  0.2890
    1W        W34666  19.020   5.641   0.480  0.0115  0.0559 -0.2921
    1W        W34667  11.907   0.442   2.637 -0.1748 -0.3019 -0.2391
    1W        W34668   8.769  24.581   1.388 -0.0914  0.1895 -0.3357
    1W        W34669   8.255  17.378   7.125 -0.1803 -0.0178  0.0296
    1W        W34670   3.325   7.154   1.899 -0.1981  0.0803 -0.1418
    1W        W34671   0.332  30.300   8.455 -0.2021  0.2459  0.2252
    1W        W34672  19.088   8.046   1.868  0.4739  0.0259  0.0331
    1W        W34673  26.845   3.267   3.742 -0.0603  0.1137 -0.0848
    1W        W34674  13.745   8.869   2.481 -0.3968 -0.2156  0.2722
    1W        W34675   6.957  28.161   0.701  0.1660  0.3039  0.2538
    1W        W34676  18.293  26.726   1.635  0.0604  0.0639 -0.3542
    1W        W34677   3.727  27.441   8.507  0.4252 -0.3143  0.1437
    1W        W34678   7.446  25.782   0.466 -0.3697 -0.3001  0.2150
    1W        W34679   6.528  25.662   1.567 -0.1854 -0.1413 -0.0828
    1W        W34680   0.077  15.816   7.037 -0.0419 -0.2829  0.2950
    1W        W34681  11.986   8.367   7.901 -0.0904 -0.1023 -0.0036
    1W        W34682   2.952  10.152   7.534 -0.1237 -0.2591  0.0891
    1W        W34683   3.188  11.508   2.183 -0.2271  0.1264  0.0756
    1W        W34684  12.176   1.692   0.817 -0.1914  0.3665 -0.0067
    1W        W34685  26.557   9.438   1.155 -0.2401 -0.2187  0.2204
    1W        W34686   5.151  12.368   1.524 -0.1181  0.2454 -0.3661
    1W        W34687  15.991  16.838   0.701 -0.1176  0.1675 -0.0059
    1W        W34688  21.229  12.306   6.602 -0.2155 -0.4269 -0.1913
    1W        W34689  13.598   7.719   0.278  0.0528 -0.0314  0.0188
    1W        W34690  17.815  16.454   6.757  0.1099  0.3706 -0.1229
    1W        W34691  22.202  27.797   2.373 -0.2550  0.0816  0.2338
    1W        W34692   6.468  26.813   1.110  0.1013 -0.1307 -0.1414
    1W        W34693   4.687  16.921   6.509 -0.3557  0.0943 -0.2878
    1W        W34694  13.503  23.231   1.571 -0.0470  0.3486 -0.0343
    1W        W34695  23.981   7.509   6.744  0.0382 -0.1542  0.0477
    1W        W34696   1.810  13.659   9.127 -0.1311 -0.0676  0.3770
    1W        W34697  14.997  24.786   0.884 -0.0285 -0.1039  0.1771
    1W        W34698  16.820   6.947   0.219  0.2860  0.0017  0.0793
    1W        W34699   7.734  12.076   0.873 -0.1228  0.0229  0.0623
    1W        W34700   6.812  24.007   8.962 -0.3072 -0.0924 -0.2028
    1W        W34701  25.283  11.998   1.823 -0.1218  0.3007  0.1153
    1W        W34702  23.990  11.921   7.201  0.1975  0.0948  0.0270
    1W        W34703   0.648   1.109   0.643 -0.0909 -0.1393  0.0417
    1W        W34704  29.733   3.603   8.683  0.3061  0.6177  0.1908
    1W        W34705  24.779  15.851   8.538 -0.0031  0.1060  0.0279
    1W        W34706   8.722  19.916   6.849  0.0115 -0.1796  0.1102
    1W        W34707   3.543  21.769   1.716  0.2902  0.2678  0.1206
    1W        W34708   8.050  23.927   6.407  0.0771 -0.2192  0.0818
    1W        W34709  14.712  10.107   8.328  0.0517 -0.0598  0.0391
    1W        W34710  19.159  20.704   8.777  0.2453 -0.0203 -0.1701
    1W        W34711  18.959  23.562   6.655 -0.1874 -0.3605  0.1338
    1W        W34712  12.548  10.278   8.556 -0.1650  0.1957  0.0658
    1W        W34713  13.526  20.406   8.480  0.1245 -0.2932 -0.0713
    1W        W34714  12.665   8.886   1.030  0.3909  0.3898 -0.4051
    1W        W34715  23.088   4.278   0.837 -0.0854 -0.1033 -0.2083
    1W        W34716   3.281  18.314   0.942  0.1882 -0.0385 -0.0431
    1W        W34717  14.512  18.128   6.712  0.0009 -0.0246  0.2409
    1W        W34718  15.682  23.266   2.794 -0.0979 -0.1425  0.2216
    1W        W34719  27.152   2.480   1.146  0.1733  0.0686 -0.1436
    1W        W34720  19.578  12.815   1.524 -0.0569 -0.2006  0.0072
    1W        W34721  13.512  28.068   7.851 -0.0484 -0.2892 -0.3810
    1W        W34722   4.611   1.247   0.112 -0.2635 -0.1935  0.1683
    1W        W34723   8.270  18.727   2.380 -0.2551  0.2308  0.0849
    1W        W34724  22.344   9.632   0.031  0.2801 -0.3127 -0.2390
    1W        W34725  16.945  16.094   8.017  0.0290  0.1064 -0.1024
    1W        W34726   7.808  27.840   0.849  0.0338 -0.1948  0.0300
    1W        W34727   9.807  22.192   8.275  0.2264 -0.3184  0.2061
    1W        W34728  19.842   0.658   7.204 -0.0401  0.2563 -0.0985
    1W        W34729  20.857  19.219   1.661 -0.1221  0.3755  0.2157
    1W        W34730   3.239  27.936   2.789 -0.1099  0.1479 -0.0718
    1W        W34731  27.552  17.843   0.141 -0.0777 -0.1553 -0.2197
    1W        W34732  26.124   2.306   8.697  0.1131  0.0028  0.0332
    1W        W34733  29.549  19.940   6.647  0.2184 -0.1217 -0.1232
    1W        W34734   9.448  15.779   6.894  0.2558 -0.0802  0.0050
    1W        W34735  15.905   5.874   8.495  0.1106 -0.1162 -0.1464
    1W        W34736  26.048  11.266   2.085 -0.0156 -0.0406 -0.2947
    1W        W34737  25.244  26.518   8.822 -0.0751 -0.0547 -0.0165
    1W        W34738  20.474  13.266   2.067  0.0304 -0.1455  0.0145
    1W        W34739  24.876   2.285   8.209 -0.1029 -0.1404 -0.0545
    1W        W34740  29.138   4.957   6.559  0.2068 -0.0565  0.2106
    1W        W34741  23.510  24.099   1.409  0.0786  0.0581  0.0490
    1W        W34742  24.471  12.671   0.958  0.0680 -0.3984  0.1499
    1W        W34743   3.546  15.379   8.269  0.3730 -0.3244  0.0661
    1W        W34744   0.338  26.352   8.836  0.2079  0.1010 -0.0197
    1W        W34745  15.587  14.903   7.113 -0.2773  0.1032 -0.0950
    1W        W34746  24.988   9.787   1.402 -0.0291 -0.0298 -0.2163
    1W        W34747  11.742  12.844   0.338  0.1294  0.0174  0.2324
    1W        W34748  28.058   9.784   0.365  0.1832  0.0414  0.1599
    1W        W34749   7.954   6.248   6.634 -0.2089  0.0032 -0.1775
    1W        W34750  10.592  16.138   6.320 -0.0180  0.1486 -0.1095
    1W        W34751   0.934   5.471   1.217  0.1664  0.0359  0.1023
    1W        W34752  29.657  10.481   1.632 -0.0214  0.2259  0.0940
    1W        W34753  14.998   7.520   1.691 -0.1524 -0.1000  0.0133
    1W        W34754  12.112  19.785   8.061  0.0414 -0.2108  0.2782
    1W        W34755   7.074  10.935   0.319  0.0699  0.0849  0.3666
    1W        W34756   6.497  22.518   9.129  0.0961  0.0110  0.0648
    1W        W34757   0.735  28.438   1.923  0.0444  0.2284  0.3058
    1W        W34758  18.095   3.793   7.914 -0.2719 -0.1505  0.1096
    1W        W34759   4.696  23.268   1.941  0.2222 -0.2365 -0.1107
    1W        W34760   5.727  25.109   8.747 -0.2182  0.1250  0.4013
    1W        W34761  20.650  11.238   0.693 -0.2756  0.0485 -0.1966
    1W        W34762  16.091   4.458   5.607 -0.0988  0.0991  0.1893
    1W        W34763  20.710  26.928   7.257 -0.2645 -0.2659 -0.1514
    1W        W34764  21.429  10.690   0.566 -0.1869 -0.3536 -0.1324
    1W        W34765   3.017  14.000   6.719  0.1269  0.0888 -0.0090
    1W        W34766   5.143  26.352   2.452  0.0530  0.2033  0.1532
    1W        W34767  30.139  13.925   1.380  0.1420  0.1430 -0.1104
    1W        W34768  28.169  28.712   1.026  0.1246  0.0121 -0.0012
    1W        W34769   6.010  24.395   0.104  0.4066  0.5123  0.0871
    1W        W34770  28.331  21.425   0.119 -0.1937 -0.2717  0.2589
    1W        W34771  26.017  11.689   0.567 -0.2634 -0.0211  0.0716
    1W        W34772  25.580   6.343   1.629 -0.1017  0.5835 -0.1675
    1W        W34773   1.915  27.593   2.303  0.2675  0.0200 -0.2149
    1W        W34774  13.840  15.256   2.879  0.2333 -0.2053 -0.0857
    1W        W34775  21.202   5.601   6.711 -0.0251  0.0473  0.0275
    1W        W34776  18.769  19.959   8.415  0.4689 -0.1070 -0.0805
    1W        W34777   0.594   6.339   6.459 -0.2101 -0.0214  0.0302
    1W        W34778  25.032  19.211   1.366 -0.1573 -0.2939 -0.0019
    1W        W34779  26.896  19.371   8.716 -0.1720  0.3847 -0.3250
    1W        W34780  29.246   1.955   1.648  0.0822 -0.0746 -0.0284
    1W        W34781   2.019  15.858   9.203 -0.0471 -0.1975  0.0312
    1W        W34782  18.271   9.497   7.024  0.1960  0.0098  0.0960
    1W        W34783   0.703  24.542   7.385  0.1029 -0.2029  0.0737
    1W        W34784   5.362  14.796   0.306 -0.1188 -0.0635  0.3646
    1W        W34785  16.443   3.864   8.941  0.0443 -0.0430 -0.5561
    1W        W34786   6.281  25.074   8.682 -0.2772 -0.1034 -0.1866
    1W        W34787  11.113  28.977   1.576  0.0428 -0.2194  0.0045
    1W        W34788  22.219   7.709   7.784 -0.1146  0.0799  0.2411
    1W        W34789   4.028  21.157   9.129 -0.1187 -0.0301  0.0361
    1W        W34790  22.567  27.176   7.949 -0.2711  0.0139  0.0208
    1W        W34791   2.599   2.130   8.595  0.2170 -0.2444 -0.1192
    1W        W34792  21.412  11.132   7.112 -0.0504 -0.0410 -0.1260
    1W        W34793  15.845   6.529   7.223  0.1920  0.1865 -0.1866
    1W        W34794  16.685  21.717   1.678  0.3023 -0.1331 -0.0619
    1W        W34795  18.560  22.717   8.595 -0.1678 -0.1884 -0.0462
    1W        W34796  12.965  22.076   0.285  0.0661  0.0149 -0.1186
    1W        W34797   4.869  23.101   6.729  0.0720 -0.1902  0.1407
    1W        W34798  15.372  28.356   3.045  0.0100  0.2804  0.3804
    1W        W34799  20.159   6.514   8.158  0.3212  0.2617 -0.0891
    1W        W34800   5.272  28.150   1.101  0.1113  0.3071  0.1171
    1W        W34801  19.204   3.940   9.108  0.1499 -0.0227  0.1657
    1W        W34802   7.454  11.842   0.207  0.2233 -0.0257  0.1809
    1W        W34803  19.491  28.108   6.833  0.1271 -0.0768  0.1282
    1W        W34804  17.077  20.294   6.693  0.0490 -0.2456  0.0840
    1W        W34805  12.321  13.291   0.067 -0.1149 -0.0376 -0.1170
    1W        W34806   5.546  15.133   0.872  0.0544  0.0120 -0.0401
    1W        W34807   2.507   2.966   1.650 -0.0834  0.3243  0.2394
    1W        W34808   7.348   6.551   0.640 -0.1146 -0.0467 -0.0386
    1W        W34809  13.585  26.279   8.285 -0.1066  0.3832 -0.0909
    1W        W34810   5.025  23.935   7.180 -0.2910  0.0241 -0.1568
    1W        W34811  11.993  19.414   5.934  0.1144 -0.1238 -0.0756
    1W        W34812  17.137   4.826   8.357 -0.1288 -0.0317  0.0843
    1W        W34813  12.545  27.132   6.495  0.1503  0.1590  0.1139
    1W        W34814  15.513  10.816   0.177  0.1933 -0.5119  0.2397
    1W        W34815  25.096  11.520   6.271  0.1388  0.0785 -0.1338
    1W        W34816   3.469  15.759   0.010  0.2435  0.1886  0.2124
    1W        W34817  10.358   0.183   1.572  0.1885 -0.3383  0.0143
    1W        W34818   2.012   3.863   0.422  0.1399 -0.0039  0.3725
    1W        W34819   5.936   2.629   9.173  0.1326 -0.1249 -0.0268
    1W        W34820  29.864   9.901   2.276 -0.1681  0.1679 -0.0155
    1W        W34821  23.373  24.099   7.473  0.0085 -0.1141 -0.1157
    1W        W34822   4.737  18.425   0.542 -0.3616 -0.1171 -0.0113
    1W        W34823  17.787  30.195   6.684 -0.2422 -0.3246  0.1103
    1W        W34824  24.573  13.048   6.530 -0.2915  0.3830  0.1014
    1W        W34825  21.995  16.189   8.366 -0.4067  0.2785  0.3716
    1W        W34826  27.122  19.774   8.543 -0.2131 -0.2823 -0.0139
    1W        W34827  15.925   2.517   0.904  0.1080 -0.1481 -0.1079
    1W        W34828   7.205  19.238   6.626  0.0633  0.1328  0.1352
    1W        W34829   8.525  14.289   8.423  0.1924  0.1114 -0.1258
    1W        W34830  24.029   1.250   0.398 -0.1344 -0.2151  0.1310
    1W        W34831  20.025  20.557   6.809  0.0195 -0.1994  0.0858
    1W        W34832  16.030  16.864   7.067  0.1977 -0.2002  0.0975
    1W        W34833  13.350  11.058   3.342  0.1674  0.1416 -0.3330
    1W        W34834  15.980  10.967   2.881  0.2628 -0.0816 -0.3210
    1W        W34835  20.022   9.319   7.624  0.0975 -0.0418  0.0597
    1W        W34836  26.709  11.466   6.653  0.1511  0.0046 -0.0774
    1W        W34837   7.940  13.046   0.807 -0.0545  0.0350 -0.1518
    1W        W34838  27.490  16.070   8.759 -0.0171  0.1305 -0.2528
    1W        W34839   2.830  10.215   6.705  0.1439  0.1673 -0.0603
    1W        W34840  16.846   4.231   1.682 -0.0739  0.1340 -0.2037
    1W        W34841  24.895  24.753   6.845  0.1182 -0.0756  0.1206
    1W        W34842  17.897   9.142   6.142  0.2338 -0.2229 -0.0525
    1W        W34843  20.399  27.736   3.050  0.1036  0.1893 -0.1498
    1W        W34844  26.746  14.440   8.071  0.0515 -0.1239 -0.2509
    1W        W34845  20.149  16.562   8.748  0.0570 -0.1897  0.2651
    1W        W34846   4.718   8.932   1.564  0.1618 -0.0076  0.0389
    1W        W34847   0.418  25.869   1.602 -0.1234 -0.0574 -0.1222
    1W        W34848  17.401  15.984   3.121  0.4920 -0.0505  0.0872
    1W        W34849   5.506  29.267   1.422  0.0047 -0.0091  0.0124
    1W        W34850  19.477  14.467   6.052  0.1009  0.1093 -0.1565
    1W        W34851  23.718  29.702   1.298  0.0074  0.0267 -0.2358
    1W        W34852  23.734   8.545   6.737 -0.1301  0.0283 -0.0326
    1W        W34853   3.175  11.562   8.064 -0.0181 -0.0330  0.0481
    1W        W34854  26.958   5.523   1.745 -0.0242  0.0095  0.2351
    1W        W34855  17.578   7.004   7.717  0.0264 -0.2424 -0.1484
    1W        W34856  23.561  20.744   6.077  0.0530 -0.2292  0.0851
    1W        W34857   7.028   8.277   1.528 -0.1631 -0.3191  0.2978
    1W        W34858  15.025  29.557   9.112 -0.1174  0.2680  0.3913
    1W        W34859  20.173  10.676   6.525  0.0252  0.1902  0.2520
    1W        W34860   3.730  12.367   7.234  0.0728  0.0338  0.0231
    1W        W34861   0.753  18.534   0.933 -0.2963 -0.0563 -0.4666
    1W        W34862  16.995   3.976   5.771 -0.2587 -0.0080  0.0186
    1W        W34863   0.510  28.815   6.789 -0.0873 -0.0886 -0.1095
    1W        W34864   5.372  10.395   6.859  0.2419  0.0694  0.0590
    1W        W34865   2.558  29.162   7.717 -0.0441  0.1799 -0.0165
    1W        W34866  10.713   9.967   3.311 -0.1510 -0.0981 -0.0028
    1W        W34867  21.393   4.957   0.727 -0.0577 -0.0328  0.0832
    1W        W34868  12.703  26.495   1.916  0.2333 -0.1412  0.0574
    1W        W34869   6.178  25.676   1.263  0.1018  0.0245 -0.1019
    1W        W34870  26.633  23.708   0.669  0.0867 -0.1201  0.1089
    1W        W34871   5.758  18.413   7.191 -0.3972 -0.2799 -0.3413
    1W        W34872  24.679   1.022   8.866  0.0263  0.2827 -0.1244
    1W        W34873  24.142  27.946   1.037  0.1573  0.3058 -0.0840
    1W        W34874  14.310  30.070   0.841 -0.1613  0.0317 -0.1329
    1W        W34875  21.597   9.255   6.291 -0.0525  0.0261 -0.0135
    1W        W34876   5.807   5.693   2.189  0.0107  0.0273  0.1702
    1W        W34877  11.591  26.193   8.583 -0.1661  0.0292  0.1155
    1W        W34878  21.800   8.478   8.298  0.1415 -0.5052  0.2705
    1W        W34879  19.256  21.440   2.093 -0.0243  0.1145  0.1232
    1W        W34880  21.050  17.295   1.325  0.2671 -0.2726  0.3072
    1W        W34881   3.804  12.109   1.951  0.0919 -0.0421  0.2454
    1W        W34882  26.703  26.578   9.118  0.1860  0.0192  0.0348
    1W        W34883   8.219   4.285   3.557 -0.2230  0.1581  0.0160
    1W        W34884  19.361  14.884   2.385 -0.0218 -0.0001 -0.1920
    1W        W34885  10.304  22.732   7.156  0.0515 -0.1482 -0.2591
    1W        W34886   9.125  27.161   0.351 -0.1496 -0.2087 -0.1459
    1W        W34887  26.287  29.894   0.444 -0.1019  0.0353  0.0561
    1W        W34888   6.132   6.614   0.841 -0.3063  0.2289  0.0284
    1W        W34889   1.739   2.572   8.072 -0.0008 -0.1056 -0.1905
    1W        W34890  19.012   1.751   6.695  0.0109 -0.4161  0.0519
    1W        W34891   0.738   1.731   8.192 -0.2464 -0.0162  0.0024
    1W        W34892   0.451  12.446   0.468 -0.4011  0.4437  0.0102
    1W        W34893  15.499   8.972   0.378  0.0868 -0.1382  0.0768
    1W        W34894  12.471   6.945   8.314  0.1343 -0.1900  0.0006
    1W        W34895  29.295   5.292   7.849 -0.1805  0.1270  0.2036
    1W        W34896  22.317  13.706   8.469 -0.2174  0.0044 -0.0364
    1W        W34897  27.220   6.370   3.666  0.1464  0.3214  0.4042
    1W        W34898  21.168  12.977   1.119 -0.3532  0.0757  0.0386
    1W        W34899  27.932   0.534   0.820  0.1175 -0.0747 -0.1402
    1W        W34900  10.186  18.715   9.018  0.0486  0.0011  0.0180
    1W        W34901  14.578  22.156   1.002 -0.0872  0.3657 -0.1469
    1W        W34902  10.983   8.478   2.021  0.0336  0.2669 -0.1142
    1W        W34903  28.435  28.530   0.479  0.1680  0.0943  0.1050
    1W        W34904  11.223  10.963   2.228 -0.1817 -0.1151 -0.1412
    1W        W34905  12.464   2.391   8.269 -0.2904 -0.2289  0.2766
    1W        W34906  20.786  13.064   8.793  0.0337 -0.1380  0.3397
    1W        W34907   1.601   4.540   0.120  0.1162 -0.0592 -0.1395
    1W        W34908   2.194  17.985   0.168  0.1752 -0.0870  0.0760
    1W        W34909  23.973   5.568   0.381 -0.2213  0.1169  0.2949
    1W        W34910  28.876  14.196   7.663 -0.1296  0.0307 -0.2015
    1W        W34911  21.747  17.354   6.455  0.2188  0.0117 -0.0034
    1W        W34912  27.956   2.015   7.134 -0.1152  0.1736  0.0208
    1W        W34913   1.521  28.627   0.831  0.0355  0.3059  0.2521
    1W        W34914  26.311   2.357   7.272 -0.3148  0.1159 -0.0665
    1W        W34915  28.341   1.821   8.523 -0.0664 -0.2942 -0.0135
    1W        W34916   1.798  23.436   7.967 -0.0695  0.0013  0.1896
    1W        W34917  15.458  21.172   6.895  0.2074 -0.2011  0.1084
    1W        W34918   2.609   8.482   3.024  0.0894 -0.0676  0.1571
    1W        W34919   9.121  16.245   6.066  0.1256 -0.2193 -0.0444
    1W        W34920  21.400  12.299   2.726  0.0388 -0.1180 -0.4379
    1W        W34921  27.227   0.448   3.589  0.3594 -0.1516  0.2551
    1W        W34922  15.966  28.793   1.811 -0.3825 -0.1759 -0.0311
    1W        W34923   6.272  24.582   8.273  0.3775  0.1488 -0.1909
    1W        W34924   5.247  23.289   0.719  0.0405  0.0860  0.1180
    1W        W34925   9.872  27.041   8.311 -0.0540  0.0830 -0.2569
    1W        W34926  11.441  29.656   2.672  0.1424  0.0555 -0.1743
    1W        W34927  23.936  27.968   0.543  0.0606  0.1926  0.0207
    1W        W34928  12.824  16.311   8.474 -0.3387  0.2940 -0.0487
    1W        W34929  24.613  25.002   1.640  0.1478 -0.3029 -0.0996
    1W        W34930  19.919   7.054   8.250 -0.3421  0.0914  0.0036
    1W        W34931  25.890  25.131   0.302  0.0786  0.0215  0.0440
    1W        W34932  19.442   7.555   0.799  0.0288  0.0785  0.1301
    1W        W34933  10.089  19.162   1.927  0.4700  0.3956 -0.2081
    1W        W34934  14.424  17.829   7.134 -0.0176  0.1170  0.1117
    1W        W34935  26.110  15.801   7.783  0.3160  0.0936 -0.2588
    1W        W34936  11.611  26.365   9.171 -0.1197  0.3615 -0.1637
    1W        W34937  25.665  22.568   1.168 -0.0430  0.0607 -0.3171
    1W        W34938  12.299  20.122   1.446  0.0122 -0.1214 -0.0298
    1W        W34939  17.373  20.821   0.495  0.3872 -0.1862 -0.3614
    1W        W34940  16.195  20.201   3.226  0.0846 -0.0753 -0.1386
    1W        W34941  11.412   7.047   9.016  0.1372 -0.0473  0.1530
    1W        W34942   7.302  18.770   8.367  0.2173 -0.2256  0.2039
    1W        W34943   4.847   1.677   1.039  0.0350 -0.3345 -0.2558
    1W        W34944   9.896  24.420   8.516  0.0753 -0.0805  0.2358
    1W        W34945  20.550  16.485   7.109  0.2602 -0.5174 -0.2588
    1W        W34946   2.733   8.932   0.021 -0.0443 -0.0983  0.0809
    1W        W34947  16.587  29.140   8.157  0.2740 -0.1550  0.2214
    1W        W34948  13.074   2.546   7.262  0.0819  0.1578  0.0520
    1W        W34949  19.843  13.143   2.759 -0.1648  0.2137  0.1474
    1W        W34950  15.412  26.441   1.729  0.3515 -0.0679 -0.3638
    1W        W34951   5.670  21.361   0.109 -0.2375  0.0170  0.0472
    1W        W34952  24.810  11.409   1.799  0.0564  0.3077  0.1720
    1W        W34953  23.393   4.545   8.525  0.1460 -0.1195  0.3337
    1W        W34954  23.041  17.307   9.165 -0.0611 -0.1207 -0.0613
    1W        W34955  11.900   1.122   0.759 -0.0755  0.0023 -0.2034
    1W        W34956   9.011  17.850   6.284  0.1638 -0.0396 -0.0597
    1W        W34957   6.280   4.998   8.217  0.2122 -0.1330  0.0536
    1W        W34958   2.350  26.718   0.830  0.0296 -0.0225  0.0511
    1W        W34959  23.993  12.941   0.594 -0.3426  0.0537 -0.3060
    1W        W34960  15.554   6.475   9.157  0.1450  0.2459  0.3729
    1W        W34961  12.526  15.499   8.982 -0.0726 -0.1113  0.1499
    1W        W34962   9.865   3.523   9.103  0.1026  0.3720  0.1391
    1W        W34963  20.172   6.435   7.577 -0.0026 -0.1343 -0.1900
    1W        W34964  27.641   6.431   7.020  0.3733 -0.1101 -0.4194
    1W        W34965   5.633  27.995   8.408  0.2673  0.0632  0.3374
    1W        W34966  19.676  18.109   9.205 -0.2949  0.2590  0.3005
    1W        W34967   3.352  21.126   8.704  0.1437 -0.0853  0.0865
    1W        W34968  11.321  11.818   6.701  0.0422  0.3001  0.2064
    1W        W34969  18.362   6.149   8.187  0.0430 -0.0475 -0.0270
    1W        W34970  27.723   7.479   8.272 -0.1103 -0.1287  0.1867
    1W        W34971  17.326  25.934   8.802  0.1867 -0.0735  0.1531
    1W        W34972   0.404  18.640   8.551 -0.0390 -0.1388 -0.1794
    1W        W34973  18.342   1.311   9.119  0.0285 -0.0216  0.1277
    1W        W34974   9.946   2.955   2.204 -0.1801 -0.2725  0.1635
    1W        W34975  21.128   7.413   8.533 -0.0493 -0.0250  0.0082
    1W        W34976  22.508   5.416   2.046 -0.2216  0.0634 -0.0809
    1W        W34977  11.726   7.455   1.010 -0.1674 -0.0558  0.0497
    1W        W34978  15.332   0.901   8.117 -0.2492 -0.0468  0.2326
    1W        W34979  25.299   2.148   3.354  0.0006  0.2316  0.0861
    1W        W34980  14.166  22.684   6.428 -0.1191 -0.0830 -0.0090
    1W        W34981  22.943   0.178   3.551 -0.1576 -0.3697  0.1772
    1W        W34982  25.919  25.644   8.465 -0.1766  0.2791 -0.0016
    1W        W34983  12.166   1.291   7.303  0.1156  0.1308  0.0060
    1W        W34984   2.187  29.971   0.226 -0.0299 -0.0521 -0.0016
    1W        W34985  26.858  23.315   0.849 -0.5357 -0.1667  0.0741
    1W        W34986  14.168  25.114   6.862 -0.0131 -0.0424  0.1022
    1W        W34987  17.748  10.695   2.263 -0.0249  0.3420  0.0950
    1W        W34988  17.449   1.504   8.685 -0.2476 -0.3633  0.0550
    1W        W34989   0.623  16.013   0.615  0.3519 -0.0620 -0.3902
    1W        W34990  18.313  23.037   5.992  0.1041  0.0444  0.0565
    1W        W34991  25.724  26.585   8.858  0.0404  0.2934 -0.0063
    1W        W34992  15.088   7.660   1.067  0.3617 -0.2001  0.0619
    1W        W34993   3.984   6.058   0.286 -0.0454  0.0236 -0.1370
    1W        W34994  28.825   4.228   2.554  0.2042 -0.0751  0.0427
    1W        W34995   2.732  14.475   8.334 -0.1861  0.1920 -0.0596
    1W        W34996   9.677  13.011   6.916 -0.0732 -0.0702  0.0722
    1W        W34997   1.966  16.243   0.922  0.3664  0.0856 -0.0087
    1W        W34998   1.317  19.301   0.564  0.0329 -0.0649  0.1727
    1W        W34999  28.177  22.179   8.116 -0.0213  0.1136  0.2026
    1W        W35000  30.351   7.064   1.220  0.3725  0.3717 -0.1515
    1W        W35001  12.452   6.442   0.363 -0.1418  0.0282 -0.0320
    1W        W35002   1.925  18.127   7.691 -0.0160  0.2794  0.1092
    1W        W35003  23.852  12.136   7.650 -0.0243  0.0092 -0.1601
    1W        W35004  14.065   9.016   0.596 -0.1984 -0.1028  0.1531
    1W        W35005  28.784  15.630   1.027 -0.0104  0.1303 -0.4337
    1W        W35006  28.317  27.742   9.226  0.0414  0.1206  0.2252
    1W        W35007   9.935  26.531   2.591  0.3212  0.1584  0.1543
    1W        W35008  20.408  19.656   6.993  0.2080  0.0173 -0.0191
    1W        W35009   8.265  17.423   1.295  0.1509 -0.2256  0.0594
    1W        W35010   1.154   8.931   2.609  0.1105  0.0053  0.0775
    1W        W35011   2.611  29.471   3.514 -0.1948  0.2777 -0.0963
    1W        W35012  28.360  13.305   1.719  0.0013  0.1583  0.2164
    1W        W35013   9.677  12.099   1.617  0.1790  0.0389  0.0054
    1W        W35014  20.249  10.120   6.445 -0.0812 -0.0829  0.0352
    1W        W35015  23.485   8.741   0.123 -0.3517  0.2728 -0.0135
    1W        W35016   0.630   9.531   0.677 -0.1397  0.1441  0.0207
    1W        W35017  28.114   7.513   8.695  0.1422 -0.0482 -0.0615
    1W        W35018  19.545   8.355   8.541  0.1269  0.2983  0.0584
    1W        W35019  28.657  22.488   1.676  0.0955  0.1492 -0.2590
    1W        W35020  22.462   4.745   3.445  0.0865 -0.0380 -0.0498
    1W        W35021  18.021   4.535   1.954 -0.3414  0.1116 -0.0409
    1W        W35022  28.089   5.451   0.639  0.1518  0.0961  0.0887
    1W        W35023   1.858  14.613   6.647 -0.2195  0.3930 -0.0394
    1W        W35024  22.753  10.026   1.172 -0.0727  0.0154 -0.0071
    1W        W35025  22.967  12.364   6.790  0.0296 -0.4956 -0.1899
    1W        W35026  26.600   8.945   9.162 -0.1059  0.1638 -0.0916
    1W        W35027  26.782  24.685   1.798  0.0026 -0.0743 -0.1242
    1W        W35028  13.301  25.413   6.418  0.0417  0.2676 -0.3474
    1W        W35029  25.738   9.400   8.279  0.1847  0.2193  0.2733
    1W        W35030  22.975  24.341   0.023 -0.1719  0.1724 -0.2107
    1W        W35031  19.443  15.709   1.988  0.1524 -0.2047  0.2314
    1W        W35032  16.147  11.721   0.381 -0.0543  0.1714 -0.3689
    1W        W35033  13.290  11.224   2.844  0.0743  0.1433  0.0899
    1W        W35034  23.551  25.259   8.677  0.0791 -0.1445  0.2444
    1W        W35035  24.519  21.981   1.143 -0.2432 -0.0808  0.0894
    1W        W35036  24.260  17.662   8.174 -0.3797  0.0142  0.0522
    1W        W35037  14.772  27.260   7.483  0.3078  0.4022  0.0033
    1W        W35038  12.212  20.566   6.471  0.0874  0.0617 -0.0771
    1W        W35039  17.502  24.712   0.598  0.0355  0.0141 -0.4577
    1W        W35040   5.907   0.579   2.196 -0.3044 -0.0610  0.0110
    1W        W35041  13.540  12.805   8.281  0.0860  0.3477  0.0211
    1W        W35042  18.466  16.041   0.322  0.2577  0.1456  0.0038
    1W        W35043  16.442  16.551   7.122  0.1087  0.1378  0.3343
    1W        W35044  27.546  12.016   7.708 -0.1670  0.0381  0.2937
    1W        W35045   4.502  24.102   8.985  0.1899 -0.1244 -0.0857
    1W        W35046  23.677   1.871   1.298  0.0887 -0.2937  0.0625
    1W        W35047  25.586  14.953   7.276 -0.1423  0.1472 -0.0105
    1W        W35048  27.356  24.919   0.165  0.1418  0.3040 -0.1318
    1W        W35049   2.268   5.448   8.179 -0.1354  0.3131  0.0524
    1W        W35050  11.590  30.008   1.891  0.0999 -0.2350  0.1165
    1W        W35051   9.206   8.205   0.481  0.1679  0.1876  0.0266
    1W        W35052  22.748  27.919   3.153 -0.2064 -0.0251  0.2113
    1W        W35053  10.735  12.320   7.440  0.1038  0.0833 -0.3434
    1W        W35054   9.911  27.341   9.252  0.1566 -0.0533  0.0349
    1W        W35055  22.764  22.056   7.077  0.1591  0.0962 -0.0957
    1W        W35056  12.491   4.876   8.163 -0.1511  0.0541 -0.0305
    1W        W35057  19.385  12.450   2.093  0.0512  0.5291  0.0702
    1W        W35058  10.731   8.254   7.631  0.2279  0.1691 -0.0005
    1W        W35059  17.332  22.914   7.320 -0.1035 -0.2531 -0.0248
    1W        W35060  10.864  22.443   5.797  0.1140 -0.1074  0.3735
    1W        W35061  28.837   8.790   0.934  0.2636  0.0117  0.0032
    1W        W35062  23.027  29.137   0.265  0.1054 -0.0203  0.2720
    1W        W35063  19.225  26.637   6.712 -0.0266 -0.0393 -0.1027
    1W        W35064   9.278  18.872   6.028  0.0382 -0.0988  0.0769
    1W        W35065  26.429  25.168   0.177 -0.0058 -0.1020  0.2791
    1W        W35066  10.497  19.033   6.309  0.2087  0.3462 -0.0528
    1W        W35067  16.397  25.826   0.971 -0.1254 -0.0605  0.4220
    1W        W35068  14.954  16.750   1.379  0.2676  0.1081  0.0627
    1W        W35069  20.847  16.013   8.854  0.0085 -0.1590  0.0991
    1W        W35070  26.271  24.799   7.076 -0.0701 -0.0052 -0.0727
    1W        W35071  12.948  24.182   1.916 -0.2728  0.3242 -0.3306
    1W        W35072  17.108  16.851   1.596 -0.0220  0.2104  0.0136
    1W        W35073  24.243  24.720   7.790  0.2859  0.0718  0.0480
    1W        W35074  23.773   2.715   0.758  0.1209  0.0164 -0.0091
    1W        W35075  10.030  20.791   1.559  0.1894  0.1109 -0.1402
    1W        W35076   0.220  24.202   1.828  0.2529  0.0221 -0.1704
    1W        W35077  24.781  17.383   1.987  0.0345 -0.1390  0.1512
    1W        W35078  10.840  28.634   7.081 -0.1548 -0.0341 -0.1949
    1W        W35079  15.532  28.545   0.887  0.1374 -0.2418  0.0855
    1W        W35080  25.006  24.955   7.587 -0.1268 -0.1372  0.0713
    1W        W35081  19.038  26.241   1.926 -0.2914 -0.2062 -0.2895
    1W        W35082   5.912   8.393   7.380 -0.0414  0.0094  0.1058
    1W        W35083  29.958  12.425   0.270  0.3019 -0.0756  0.1542
    1W        W35084  20.171  26.597   8.370  0.0335  0.1118 -0.1580
    1W        W35085   0.863  21.393   7.142  0.0960 -0.2662  0.1925
    1W        W35086  12.447   8.273   2.724 -0.0555 -0.0723  0.0982
    1W        W35087  16.267   2.924   1.253  0.1123 -0.1228  0.0852
    1W        W35088  22.880  18.451   0.497  0.1646  0.2334 -0.1573
    1W        W35089  27.861  10.028   1.914  0.1375 -0.0356 -0.0857
    1W        W35090   3.989  22.201   6.627 -0.1230 -0.2240 -0.1299
    1W        W35091   5.180   6.196   0.548 -0.4645  0.2914  0.0902
    1W        W35092   4.373  12.773   2.060 -0.1036 -0.1212 -0.1217
    1W        W35093  26.144  24.197   9.190  0.1132 -0.0714 -0.3973
    1W        W35094  12.549  28.344   7.674  0.0173  0.0561 -0.1636
    1W        W35095  10.076   9.343   7.263 -0.0397 -0.2581  0.1189
    1W        W35096   5.196  13.837   8.284  0.3581  0.1607 -0.1811
    1W        W35097  21.243  20.874   7.519 -0.1392  0.1576 -0.1428
    1W        W35098  23.285   1.737   1.692 -0.1423 -0.1226 -0.1293
    1W        W35099  28.590   5.917   0.741 -0.0910  0.2073  0.0155
    1W        W35100   3.133   1.824   7.025  0.4073  0.1237  0.2318
    1W        W35101  16.824  17.913   7.305 -0.0842 -0.0979  0.1858
    1W        W35102  29.847   3.825   1.852  0.1723 -0.1612  0.1245
    1W        W35103  10.952  13.071   2.654 -0.0883  0.0509  0.2905
    1W        W35104  17.790   6.201   7.531 -0.4024 -0.1547 -0.1750
    1W        W35105  27.206   7.322   0.185 -0.0804  0.2968 -0.0855
    1W        W35106  22.230  21.501   7.782 -0.0160 -0.1329 -0.1969
    1W        W35107   8.258  17.747   6.727  0.2943 -0.1942  0.0254
    1W        W35108  11.354  21.660   0.907 -0.0209 -0.1115  0.1033
    1W        W35109  14.402  19.601   9.049 -0.0979  0.0011 -0.1482
    1W        W35110  21.725   8.836   7.097  0.4442  0.2657 -0.0180
    1W        W35111  17.140  17.103   2.626  0.1180  0.1494  0.1032
    1W        W35112   0.056  24.629   8.099  0.0430 -0.0244  0.1795
    1W        W35113  30.034  24.895   7.119 -0.0481 -0.2497 -0.2092
    1W        W35114  12.576   9.627   0.428  0.0768 -0.3153 -0.2091
    1W        W35115   4.226  23.118   1.701 -0.1567  0.0985 -0.0316
    1W        W35116  29.074  25.404   8.735  0.0670  0.0203 -0.0597
    1W        W35117   6.876  21.519   5.412  0.0028  0.1147 -0.4365
    1W        W35118  12.906  20.248   0.157  0.0229 -0.2076 -0.0116
    1W        W35119  12.798  18.223   7.989 -0.2323 -0.3664  0.3527
    1W        W35120  14.276  13.252   7.910  0.2496 -0.0608  0.0408
    1W        W35121  26.058  20.156   7.701 -0.0470 -0.1358 -0.0543
    1W        W35122  25.854   5.803   7.730  0.0801  0.0099 -0.1077
    1W        W35123  28.979  17.656   0.817 -0.1170  0.1968 -0.0472
    1W        W35124  18.582  18.307   7.865 -0.3135  0.3099 -0.0392
    1W        W35125   9.552  11.061   7.720  0.1502  0.0385 -0.0126
    1W        W35126   9.134  17.196   6.845  0.1546 -0.0061 -0.0778
    1W        W35127  22.942  10.747   8.456 -0.2388 -0.0559 -0.0685
    1W        W35128  15.541  27.287   6.672 -0.3130 -0.0470 -0.0099
    1W        W35129  26.273  20.950   7.172  0.0539 -0.1667 -0.0010
    1W        W35130  24.367  11.982   2.324 -0.3276 -0.1709  0.0654
    1W        W35131  17.079  19.392   9.188 -0.0291  0.0691 -0.1311
    1W        W35132  16.545   7.154   1.704  0.4936 -0.2971  0.3379
    1W        W35133   1.280  18.387   6.648  0.0890 -0.0169  0.1032
    1W        W35134  24.643  21.539   5.906 -0.3191 -0.2183 -0.2405
    1W        W35135  28.414  16.497   6.550 -0.3549  0.2562  0.1928
    1W        W35136  23.075  26.776   0.319 -0.2579 -0.1775 -0.2465
    1W        W35137   5.245   2.521   2.286  0.2229  0.1533 -0.3729
    1W        W35138   9.055  25.641   7.401 -0.2816  0.0474 -0.1087
    1W        W35139  10.364  10.444   2.354  0.2693 -0.1535 -0.2137
    1W        W35140  12.305   1.415   2.402  0.3092 -0.1397 -0.2818
    1W        W35141   3.476  18.235   6.937 -0.0287 -0.0526  0.0456
    1W        W35142  19.484   2.348   0.581 -0.1397 -0.0273 -0.2792
    1W        W35143  17.637  19.386   2.555  0.0235 -0.2101  0.2462
    1W        W35144  16.313   2.130   0.921  0.3056 -0.0910 -0.2315
    1W        W35145  12.145  28.551   8.639  0.2385  0.2810  0.0792
    1W        W35146  12.994  28.753   2.562  0.2094 -0.0115  0.3252
    1W        W35147  29.144   8.233   8.575  0.0965 -0.0547  0.0492
    1W        W35148   9.086   1.123   2.374 -0.0935 -0.1194  0.3516
    1W        W35149   1.865   7.284   2.905  0.0999  0.0085  0.1053
    1W        W35150  28.483  24.899   0.947  0.1562 -0.0941 -0.0677
    1W        W35151  10.093  20.713   0.222  0.0635  0.1054  0.1291
    1W        W35152   9.655  12.306   1.157  0.1773 -0.2849 -0.1984
    1W        W35153  18.792  23.340   7.097 -0.0162 -0.0295  0.0983
    1W        W35154  24.832   3.032   0.531 -0.0414  0.0462 -0.2303
    1W        W35155   3.461  27.701   0.028  0.0193  0.1297  0.2772
    1W        W35156  21.356   3.716   1.438  0.2073  0.0889  0.0088
    1W        W35157   0.814  26.562   7.924 -0.3124  0.0973 -0.0696
    1W        W35158   9.948   9.544   0.610  0.0389  0.0760 -0.1300
    1W        W35159   5.584  15.754   6.874  0.2925  0.1175  0.1273
    1W        W35160  18.593  24.727   8.072  0.2308  0.0807 -0.0304
    1W        W35161  28.549   7.405   7.393 -0.3246 -0.0825 -0.0875
    1W        W35162  24.760   7.028   8.471  0.3955 -0.0882 -0.1251
    1W        W35163  13.180  10.940   7.367 -0.0636  0.1601 -0.0030
    1W        W35164  16.203  25.692   1.403 -0.3338 -0.0413 -0.2865
    1W        W35165   0.121  28.414   4.029  0.1591 -0.1411  0.2548
    1W        W35166  11.115   2.587   8.277 -0.0434  0.1494 -0.1319
    1W        W35167   8.346  24.482   1.577  0.0024  0.0562 -0.1205
    1W        W35168  12.152  25.673   3.007 -0.0616  0.4245 -0.2380
    1W        W35169  20.890  27.245   2.485  0.1503 -0.0486  0.1289
    1W        W35170  20.514  20.610   0.181  0.4546 -0.2554 -0.0672
    1W        W35171  10.357  13.631   2.681 -0.1111 -0.2537  0.2232
    1W        W35172  12.473  14.464   1.673 -0.1343 -0.0576 -0.0417
    1W        W35173  12.762  20.085   6.587  0.1652 -0.0565 -0.1422
    1W        W35174  18.973  22.276   0.366  0.1139  0.2049 -0.0299
    1W        W35175   2.801   3.772   1.733  0.0295  0.1421 -0.1248
    1W        W35176  11.960  28.939   2.788 -0.1328  0.1231 -0.0150
    1W        W35177   3.881  15.549   0.900  0.1104  0.2913 -0.0638
    1W        W35178  19.601  13.891   1.331  0.2709  0.2014  0.1267
    1W        W35179  25.932  14.598   8.518 -0.0147 -0.0520  0.0832
    1W        W35180  12.937  21.235   0.029 -0.0800  0.1007 -0.0637
    1W        W35181  26.278  20.040   9.027 -0.0554  0.2641 -0.1025
    1W        W35182   7.530  22.633   0.330  0.0213 -0.1785  0.1106
    1W        W35183   3.866   2.879   8.724 -0.0173 -0.0848 -0.1505
    1W        W35184  22.669   7.801   2.863 -0.1793 -0.2884  0.0008
    1W        W35185  23.087   2.756   0.167  0.2666  0.3466 -0.1676
    1W        W35186  26.959  20.491   1.902  0.0228 -0.2007 -0.0248
    1W        W35187   1.456  23.493   8.433  0.0734 -0.1400 -0.1476
    1W        W35188  18.641  29.563   6.965  0.1638 -0.2230 -0.2787
    1W        W35189  11.473   7.157   1.740  0.0836  0.0483  0.3251
    1W        W35190  18.612   1.617   2.206 -0.2217  0.2065 -0.2874
    1W        W35191  26.999  21.930   6.743 -0.1861 -0.3192  0.0018
    1W        W35192   9.419  23.979   6.866  0.1968 -0.2536  0.0559
    1W        W35193   9.498  11.579   1.553 -0.0081 -0.1971  0.1334
    1W        W35194   9.703  16.962   1.844  0.1067 -0.0296  0.0127
    1W        W35195  21.921  22.615   2.054 -0.1545 -0.0955 -0.0979
    1W        W35196  28.675   0.050   2.739 -0.2729 -0.0188  0.1856
    1W        W35197  11.931  11.167   8.081 -0.2038 -0.2093  0.1031
    1W        W35198  20.125  24.489   7.813  0.0027  0.1219  0.0833
    1W        W35199  28.659  25.621   8.612  0.1332  0.2927  0.0699
    1W        W35200   3.069   6.737   0.714 -0.2267 -0.0775  0.6122
    1W        W35201  19.383  12.723   6.886 -0.0018  0.1761  0.2529
    1W        W35202  10.465   8.967   8.645  0.0146 -0.0362  0.1744
    1W        W35203  13.165  22.564   2.530  0.2885  0.0731 -0.2244
    1W        W35204  20.123  27.123   8.795 -0.0883 -0.1218 -0.1386
    1W        W35205  22.611  19.613   7.348 -0.1136  0.2893 -0.1915
    1W        W35206   5.212  22.534   2.202  0.0629  0.0656  0.5076
    1W        W35207   6.964  11.346   7.483 -0.2352  0.3106 -0.0510
    1W        W35208  18.870   6.165   8.819  0.0185 -0.0801  0.1017
    1W        W35209   0.362  23.604   1.194 -0.2652  0.1065 -0.1853
    1W        W35210  19.024   6.160   1.966 -0.3473  0.3478 -0.0889
    1W        W35211  29.391  16.526   7.485  0.2254  0.3039 -0.0018
    1W        W35212  22.023  23.454   9.093 -0.2619  0.2396 -0.1109
    1W        W35213  23.097  16.377   5.721  0.1774 -0.1446 -0.0640
    1W        W35214  26.187   3.396   0.508  0.1457 -0.2490  0.0102
    1W        W35215   5.975   0.431   7.145 -0.1168 -0.2458  0.0053
    1W        W35216   2.851   8.145   8.804 -0.0364  0.1072  0.0231
    1W        W35217   6.257  13.831   7.386  0.2775 -0.0987 -0.1753
    1W        W35218   4.989  23.054   8.284 -0.1496 -0.0878  0.0958
    1W        W35219  15.490  23.710   8.975 -0.0694 -0.0722 -0.1332
    1W        W35220  18.629  23.916   0.654 -0.5316  0.0687 -0.0691
    1W        W35221  22.173   9.496   8.163 -0.0043 -0.3390 -0.0562
    1W        W35222  21.057   5.282   2.217 -0.1492 -0.0693 -0.2262
    1W        W35223   9.741   7.377   8.945  0.2980 -0.1607  0.3963
    1W        W35224  16.215   8.075   9.178  0.2511 -0.4630 -0.0594
    1W        W35225  20.805   5.906   6.619  0.0700  0.0448  0.2324
    1W        W35226  17.978   6.727   0.978 -0.2171  0.0214 -0.3542
    1W        W35227   8.679  14.746   7.186  0.0481 -0.2679 -0.0354
    1W        W35228  22.980  15.834   6.537 -0.0939  0.0834  0.1405
    1W        W35229   3.970  17.512   7.480  0.1155 -0.0903 -0.0255
    1W        W35230  21.133  11.846   1.221 -0.1709  0.2114  0.1096
    1W        W35231   6.465  26.451   8.349  0.0287  0.0994  0.1085
    1W        W35232  21.464  13.726   0.698  0.0175  0.1080  0.2532
    1W        W35233  15.689   6.642   6.759  0.2855 -0.2358 -0.0314
    1W        W35234   3.369  24.267   8.143 -0.2323 -0.0174 -0.1973
    1W        W35235  28.711  13.415   2.126  0.1098  0.2295 -0.4047
    1W        W35236   6.583   1.102   1.025  0.0334 -0.1628  0.3685
    1W        W35237  26.711   5.894   7.424 -0.1101 -0.1744  0.0915
    1W        W35238  12.625   0.317   1.565  0.0744 -0.0886  0.1339
    1W        W35239   4.464  27.199   8.810 -0.0961  0.1666  0.1982
    1W        W35240  18.603  11.231   6.057 -0.0273  0.0034  0.1687
    1W        W35241  10.864  30.103   2.660  0.0905 -0.2359 -0.0418
    1W        W35242   3.564  12.519   6.739 -0.1662  0.0732  0.4163
    1W        W35243  26.970  22.533   8.203  0.3088 -0.0318 -0.3120
    1W        W35244  17.662  25.400   6.901  0.2558 -0.1066  0.1054
    1W        W35245   6.263  29.865   0.388 -0.0589  0.1993  0.0613
    1W        W35246  13.392  27.057   2.608  0.1026  0.0577  0.0832
    1W        W35247  21.222  18.231   5.319  0.0110 -0.1210 -0.2053
    1W        W35248   8.740  27.996   8.625 -0.1040 -0.0592  0.3504
    1W        W35249  26.677  14.126   7.199 -0.0321 -0.2857  0.0181
    1W        W35250  23.262   6.386   1.362 -0.0951 -0.1219  0.0452
    1W        W35251  25.473   2.943   7.084  0.2843 -0.2108 -0.0192
    1W        W35252   7.642  29.685   7.293 -0.0302 -0.0833  0.0494
    1W        W35253  15.409  14.166   8.570  0.1270 -0.0464 -0.0228
    1W        W35254  20.747  12.197   6.833 -0.1667 -0.1292  0.0937
    1W        W35255   5.836  12.756   0.417 -0.2931 -0.0391 -0.2941
    1W        W35256   1.073  23.848   2.319 -0.2533 -0.0068  0.1266
    1W        W35257   8.168  11.161   0.645 -0.0574  0.0750 -0.2079
    1W        W35258   7.013  24.500   8.901  0.0171  0.1395 -0.1019
    1W        W35259   3.874  11.301   0.756 -0.1118  0.0476  0.0367
    1W        W35260  12.263   2.214   2.070 -0.0820 -0.0511 -0.0705
    1W        W35261  16.373  11.136   3.346 -0.1209 -0.3631  0.1810
    1W        W35262  12.552   7.837   2.534  0.2777  0.1240 -0.0393
    1W        W35263  23.184   0.304   2.763 -0.1763  0.0236  0.1862
    1W        W35264   3.914   6.346   7.495  0.3332 -0.1062 -0.1209
    1W        W35265   5.398  10.698   6.424  0.0950 -0.0992  0.0993
    1W        W35266   7.694  28.026   8.730  0.2962  0.1864  0.1891
    1W        W35267  12.815   2.868   6.807 -0.0310  0.0709  0.3715
    1W        W35268  22.833  27.663   0.198  0.0136  0.2540  0.2356
    1W        W35269  11.004   5.547   2.312 -0.4384  0.1844  0.2318
    1W        W35270  22.724  25.562   0.524  0.2458  0.2231  0.1298
    1W        W35271   7.443  29.545   0.964 -0.1963 -0.1225  0.3311
    1W        W35272  20.472   0.478   2.685 -0.0771 -0.0483  0.1762
    1W        W35273   4.221   8.042   8.125  0.1257  0.2496 -0.0186
    1W        W35274  17.511  20.319   6.997 -0.1301 -0.0846  0.1130
    1W        W35275  14.717  28.201   7.771  0.1318 -0.0822  0.2374
    1W        W35276  25.071  18.658   0.132  0.2902  0.0033 -0.2267
    1W        W35277  24.235  14.861   0.250 -0.1342  0.2996  0.0324
    1W        W35278  26.838  17.450   6.791  0.1448  0.2843  0.2712
    1W        W35279  20.974  13.517   6.872  0.1193 -0.0245 -0.0619
    1W        W35280  25.290  23.144   0.625 -0.0371  0.0035 -0.0472
    1W        W35281  22.018  18.033   1.097  0.3777  0.0606  0.2410
    1W        W35282  12.827  12.424   0.580 -0.2899 -0.0347  0.0900
    1W        W35283  26.253  12.572   0.010 -0.0402  0.0575  0.0024
    1W        W35284  25.232  21.527   2.348 -0.1156 -0.3197 -0.0832
    1W        W35285   4.066  21.823   0.740 -0.1307  0.1389 -0.3313
    1W        W35286   2.174   2.160   1.641 -0.2296 -0.0711  0.2465
    1W        W35287  14.597   2.322   0.546  0.3703 -0.2898  0.1071
    1W        W35288  14.271  19.795   1.295 -0.3152 -0.0393 -0.1299
    1W        W35289   8.911   5.854   1.208  0.3061 -0.2945  0.0674
    1W        W35290  28.946   5.874   1.049  0.0176  0.0424 -0.1079
    1W        W35291   8.340   7.952   7.415  0.0862 -0.0561 -0.3395
    1W        W35292   0.437  23.686   1.720 -0.0409  0.1193 -0.0081
    1W        W35293  29.245  26.032   0.688 -0.2418 -0.1595 -0.2429
    1W        W35294  21.420  21.496   1.612 -0.1514  0.1639  0.3090
    1W        W35295  25.226  28.003   7.765  0.2590 -0.0694 -0.3335
    1W        W35296  21.927   6.212   1.318  0.1063 -0.3021  0.0973
    1W        W35297  20.064  11.390   8.097  0.1911  0.1623  0.1080
    1W        W35298  20.140   2.921   0.368  0.1151  0.0353  0.0520
    1W        W35299  23.830  19.754   8.425  0.1664 -0.0603  0.2047
    1W        W35300  29.599  25.311   0.376  0.4137 -0.2378  0.0431
    1W        W35301  10.221  18.399   1.122 -0.2431 -0.0686  0.0278
    1W        W35302  14.806  23.949   7.082 -0.2368 -0.0477 -0.2040
    1W        W35303  29.102  29.120   0.327 -0.2110 -0.1247  0.3342
    1W        W35304  28.578  21.820   8.065 -0.2004  0.0663 -0.3666
    1W        W35305  28.099   4.658   8.931 -0.2115 -0.1418  0.1911
    1W        W35306  19.038  30.188   8.061  0.0742  0.0214 -0.1634
    1W        W35307  15.651  12.848   9.220  0.1079 -0.3012  0.1578
    1W        W35308   8.409  13.250   1.028  0.2588  0.3558  0.0251
    1W        W35309  11.163   4.165   2.296  0.2161  0.2502 -0.1549
    1W        W35310   9.260  17.083   6.350  0.0426 -0.2395 -0.2669
    1W        W35311  21.138  18.582   9.264  0.0557  0.0601  0.2300
    1W        W35312   3.670  28.146   2.588 -0.0251 -0.0398  0.0711
    1W        W35313   5.984  20.999   0.906 -0.0792  0.0549  0.2240
    1W        W35314   5.707  28.342   7.855 -0.0662  0.0121  0.1194
    1W        W35315   7.743  17.575   6.669  0.1220  0.1560  0.0313
    1W        W35316  16.705   8.900   2.094 -0.2043  0.1347 -0.1176
    1W        W35317   9.637  18.851   1.458 -0.0485  0.0651 -0.0184
    1W        W35318  20.633  28.113   2.163  0.1795 -0.3307 -0.0389
    1W        W35319   3.986  28.212   7.452  0.0925  0.0338 -0.0926
    1W        W35320  17.045  27.981   2.149  0.0945 -0.0784  0.0094
    1W        W35321  28.994  23.206   8.564  0.2103  0.0463 -0.1235
    1W        W35322   7.423  18.105   0.805 -0.3246 -0.0211  0.4698
    1W        W35323  30.205  29.336   2.719 -0.1769 -0.2814  0.3493
    1W        W35324  20.068  29.395   1.442  0.1846 -0.0342 -0.1474
    1W        W35325  25.183  23.182   1.962  0.2188 -0.0390  0.2664
    1W        W35326   3.081  22.654   1.944 -0.4224  0.2288  0.0786
    1W        W35327   0.066  14.351   8.647 -0.0971  0.5674 -0.1793
    1W        W35328   7.857  20.683   5.448  0.3020 -0.2726 -0.2199
    1W        W35329  20.915  12.000   2.558  0.0848 -0.1420 -0.1880
    1W        W35330   3.653   3.043   2.500  0.0705 -0.1662 -0.1024
    1W        W35331  28.574  22.775   2.127  0.5027  0.1360 -0.2953
    1W        W35332  20.062  21.346   0.454 -0.0085 -0.0511  0.1005
    1W        W35333  24.641  23.391   8.935 -0.2857 -0.1266  0.1620
    1W        W35334   6.562  12.227   1.077 -0.2631 -0.1597 -0.1649
    1W        W35335   7.349  24.722   7.136  0.1010  0.2467 -0.0496
    1W        W35336  26.314  15.841   0.947  0.0775  0.0039 -0.0291
    1W        W35337  18.988  12.903   9.034  0.0741 -0.0075  0.0569
    1W        W35338  29.838  17.532   8.737 -0.1496 -0.3929 -0.1244
    1W        W35339  17.625  21.965   7.225 -0.2084 -0.0839  0.0119
    1W        W35340   3.971   9.559   1.879 -0.0789  0.0358  0.0488
    1W        W35341  17.212  10.712   6.701  0.0568  0.2089 -0.0246
    1W        W35342  22.050  17.274   8.874  0.1045 -0.0550  0.0607
    1W        W35343  18.793  29.985   6.492  0.0264  0.1372  0.1161
    1W        W35344   8.620  17.671   7.998 -0.0498 -0.0239 -0.2470
    1W        W35345  28.718  15.246   0.681 -0.0995 -0.2478 -0.0567
    1W        W35346  25.997   3.836   0.174  0.0759 -0.1294  0.0921
    1W        W35347   6.801  25.276   8.955  0.2549  0.1216 -0.1466
    1W        W35348  18.581   8.402   8.007  0.0688 -0.0199  0.2933
    1W        W35349  11.154  27.270   1.542  0.0026  0.1185 -0.2411
    1W        W35350  11.622  24.651   6.902 -0.1633  0.0712 -0.0647
    1W        W35351   5.441  30.259   2.113 -0.2490 -0.0474 -0.2367
    1W        W35352   4.110   0.258   2.615 -0.2321  0.1767 -0.1502
    1W        W35353  24.487  26.826   7.417  0.2043 -0.4107  0.0074
    1W        W35354  26.377   0.852   3.683 -0.2187  0.0362 -0.1066
    1W        W35355  26.466  30.000   7.682  0.2356 -0.2607  0.1304
    1W        W35356  11.753  22.420   2.040  0.0412 -0.1624  0.0280
    1W        W35357  25.265  19.429   8.356 -0.1477  0.0280 -0.0523
    1W        W35358   2.017  26.693   1.970 -0.0259 -0.1776 -0.2422
    1W        W35359  16.614  24.878   8.335 -0.2080  0.1131  0.1739
    1W        W35360   1.515   5.452   1.953  0.0208 -0.0901  0.2471
    1W        W35361  28.549  28.485   1.991  0.0518 -0.2460 -0.2890
    1W        W35362   2.424  27.632   8.151  0.3075 -0.3148 -0.1298
    1W        W35363  10.884  10.411   1.375 -0.0269 -0.0201 -0.0204
    1W        W35364  24.900  28.665   1.944 -0.1456 -0.0710 -0.0818
    1W        W35365  19.550  16.629   1.940  0.1646 -0.0416 -0.0292
    1W        W35366   4.143  22.552   0.724 -0.1733 -0.1073  0.2474
    1W        W35367  14.176  17.798   8.288 -0.3213 -0.0237 -0.1103
    1W        W35368  28.710  12.158   1.066  0.0440 -0.1328  0.0547
    1W        W35369  15.140  23.061   0.537  0.4395  0.2510 -0.1371
    1W        W35370  17.494   3.146   2.157  0.0676  0.0375  0.0000
    1W        W35371   2.841  23.046   8.010 -0.2147  0.2061 -0.1582
    1W        W35372  28.752   7.437   2.686  0.0185  0.3018 -0.1407
    1W        W35373   0.683   9.190   8.521  0.1584  0.3394  0.1246
    1W        W35374   4.832   0.360   8.993  0.0694 -0.2044  0.1812
    1W        W35375   7.387  29.226   1.455 -0.0298 -0.3730 -0.3194
    1W        W35376   7.624  15.531   6.244 -0.1633 -0.2474 -0.2773
    1W        W35377  17.205  20.902   1.766  0.2361 -0.0850  0.3476
    1W        W35378   3.750   9.910   8.177  0.0238  0.0011  0.0622
    1W        W35379  23.539  10.471   7.039 -0.2401  0.1218 -0.0691
    1W        W35380  11.591  23.532   8.496 -0.1554  0.1262 -0.0255
    1W        W35381   9.926  27.359   2.717 -0.1838 -0.0806 -0.2735
    1W        W35382  14.184   8.270   1.073 -0.0857 -0.1270  0.0736
    1W        W35383  20.934  16.910   6.978  0.0018 -0.1044 -0.0097
    1W        W35384   3.335  24.168   1.505 -0.1773 -0.0653 -0.1849
    1W        W35385  21.160  26.297   1.623  0.1269  0.1247 -0.0417
    1W        W35386   3.478   8.610   1.617 -0.2094 -0.0177  0.1054
    1W        W35387   4.806  23.547   0.292  0.0310 -0.0493 -0.3354
    1W        W35388  27.963  27.715   1.803 -0.0156  0.0748  0.1603
    1W        W35389  16.253  19.511   1.556 -0.3016 -0.1882 -0.1947
    1W        W35390  15.087  17.156   2.798 -0.1075 -0.0353  0.0835
    1W        W35391  30.222   9.752   2.523  0.1573  0.0163  0.1192
    1W        W35392  20.603  19.516   5.839  0.0761 -0.0709 -0.0886
    1W        W35393   2.925  19.337   1.039 -0.1784  0.2158 -0.0825
    1W        W35394   5.652  21.970   5.891  0.2112  0.2092 -0.2337
    1W        W35395  12.594   5.311   2.659  0.2389  0.2429 -0.1803
    1W        W35396  12.283  24.025   2.948  0.0923  0.4756  0.0310
    1W        W35397  18.280  11.700   0.763 -0.1275 -0.1807 -0.0900
    1W        W35398   2.988   5.311   7.609 -0.4134 -0.1188 -0.2181
    1W        W35399  16.752  25.684   7.978  0.0259  0.0224  0.1909
    1W        W35400  19.891   7.821   2.697  0.2902 -0.1173 -0.1930
    1W        W35401  24.938  27.065   1.794 -0.1282 -0.1618  0.1038
    1W        W35402   0.296  23.526   7.371 -0.4274 -0.1228  0.3519
    1W        W35403  11.933  24.539   7.653 -0.1054  0.2880  0.2123
    1W        W35404  24.481  16.896   1.328 -0.1942  0.0025 -0.0570
    1W        W35405  26.791  22.822   8.584  0.2323  0.1306 -0.0405
    1W        W35406  29.453  17.366   0.601 -0.1369  0.1011 -0.3049
    1W        W35407  25.372  26.705   0.613 -0.0080 -0.3030  0.2349
    1W        W35408  13.317   0.999   0.092 -0.0270 -0.2128  0.4726
    1W        W35409   9.804   4.076   6.369 -0.0777 -0.0938  0.1307
    1W        W35410  12.655  11.493   9.032  0.0232  0.0807  0.1133
    1W        W35411   2.517  27.990   9.098  0.0815 -0.0038  0.5188
    1W        W35412   0.922  10.717   8.301  0.2016 -0.1737 -0.1837
    1W        W35413  22.799  16.909   8.888 -0.0264 -0.3647  0.0875
    1W        W35414  13.673  16.920   7.651 -0.2321  0.0381 -0.0444
    1W        W35415  22.966  21.513   8.997  0.2822 -0.0630 -0.0311
    1W        W35416   2.866  11.054   1.537  0.0119  0.0902 -0.0286
    1W        W35417  15.358  28.420   0.441  0.2046 -0.1801 -0.3632
    1W        W35418  14.319   4.338   7.591  0.2633  0.0365 -0.0699
    1W        W35419   3.255   1.688   3.603 -0.0263  0.1121 -0.4387
    1W        W35420   1.386   4.561   6.630  0.0748 -0.1309  0.2692
    1W        W35421   2.800  25.976   1.354 -0.0483  0.0419  0.1645
    1W        W35422  19.242  18.633   0.791  0.3273  0.1439  0.0430
    1W        W35423  28.618  28.820   7.750 -0.1080 -0.0400 -0.3321
    1W        W35424   4.215  24.976   0.755 -0.1182 -0.0205 -0.1191
    1W        W35425  15.500  22.174   7.109 -0.1464 -0.1114  0.0563
    1W        W35426  17.790  19.973   0.899 -0.0023  0.2859 -0.2388
    1W        W35427  23.722   4.611   1.456  0.0297  0.1229 -0.0188
    1W        W35428  26.120  14.624   6.746  0.0038  0.1037  0.0299
    1W        W35429   2.544  11.966   7.705 -0.0067  0.1215  0.0726
    1W        W35430   6.428  16.108   1.576  0.1276 -0.0898 -0.3108
    1W        W35431  29.437  27.881   0.741  0.0131 -0.0712  0.3444
    1W        W35432  17.582   6.296   0.367  0.4318  0.2700 -0.1401
    1W        W35433  26.346  13.405   6.409 -0.0750 -0.1719 -0.0363
    1W        W35434   6.999  16.572   1.007  0.1625  0.0995  0.1034
    1W        W35435  25.994   4.852   3.173 -0.0208  0.1086 -0.1835
    1W        W35436  21.110  25.482   8.230 -0.0340  0.1883 -0.1023
    1W        W35437   8.574   0.587   7.210 -0.0049 -0.1260 -0.3786
    1W        W35438  24.361   4.595   7.166 -0.2184 -0.4135  0.1527
    1W        W35439  11.402   7.377   0.634  0.2719  0.0153  0.0478
    1W        W35440  25.504  29.416   1.476 -0.0119 -0.1037 -0.3045
    1W        W35441  24.015  18.022   8.493 -0.0733  0.0584 -0.0946
    1W        W35442  24.898  23.697   2.716 -0.2547  0.0446 -0.0123
    1W        W35443  18.460  20.598   7.364 -0.2152  0.2817 -0.0528
    1W        W35444   7.435   3.891   0.177  0.1473  0.4242  0.1596
    1W        W35445   3.713   9.036   1.899  0.1964 -0.0909 -0.0700
    1W        W35446  25.752   4.398   3.092 -0.2561 -0.0750 -0.0114
    1W        W35447  21.018   2.570   8.789 -0.2481 -0.1207 -0.0573
    1W        W35448  25.941   3.851   7.772  0.2133 -0.3216 -0.0576
    1W        W35449  20.691  27.817   6.900  0.1867 -0.2642  0.0790
    1W        W35450  24.983   1.303   6.872  0.2290  0.2409  0.0851
    1W        W35451   8.606  27.528   7.646  0.1302  0.2050  0.1931
    1W        W35452  28.946   9.537   7.654  0.0519 -0.2332 -0.1408
    1W        W35453   9.016   4.325   8.607  0.0049 -0.0598 -0.0245
    1W        W35454  24.134  26.408   8.523  0.0097 -0.1467 -0.2443
    1W        W35455   1.486   1.788   2.028 -0.4353 -0.0193 -0.0220
    1W        W35456  18.612   1.509   0.849 -0.0063 -0.2311 -0.0622
    1W        W35457   6.914  12.009   6.756  0.0463  0.3762 -0.0124
    1W        W35458  11.795   5.750   7.706 -0.0096 -0.1462 -0.2612
    1W        W35459   2.902  25.489   8.921 -0.0893  0.2980  0.7870
    1W        W35460   3.605  13.862   8.920 -0.1585  0.2433 -0.0929
    1W        W35461  15.759  29.000   2.490 -0.2469  0.0697  0.1419
    1W        W35462  17.481   1.289   7.477 -0.0853 -0.1368  0.1222
    1W        W35463  23.922   4.050   0.447  0.0180 -0.1137 -0.1386
    1W        W35464   2.206  16.961   0.439 -0.0869  0.1353  0.0219
    1W        W35465  19.395  17.040   7.325 -0.2970 -0.0035  0.0961
    1W        W35466  18.005  14.038   1.086  0.0373  0.3208  0.0070
    1W        W35467  20.494   2.827   8.643 -0.2064 -0.1446  0.0475
    1W        W35468  14.287  23.456   0.841 -0.0917  0.0689 -0.2075
    1W        W35469  13.418  28.440   7.397  0.3339 -0.2354  0.0953
    1W        W35470  30.304  22.044   1.862  0.1319  0.5739  0.5447
    1W        W35471  21.845   4.142   7.919  0.1852 -0.0858  0.0793
    1W        W35472  24.283  12.352   7.309  0.2049  0.1612  0.3093
    1W        W35473  23.440  25.109   1.458 -0.0438 -0.0617 -0.0485
    1W        W35474   8.061  18.199   8.427  0.1038  0.2468  0.1464
    1W        W35475  17.984  26.400   2.879  0.2396 -0.1210  0.0237
    1W        W35476  27.001  24.679   9.044  0.0397  0.1407  0.1233
    1W        W35477  25.997  28.863   8.961  0.4409  0.1500 -0.2310
    1W        W35478  20.317  27.989   1.000 -0.0680 -0.3721 -0.0730
    1W        W35479  20.725  28.052   9.139 -0.1096 -0.0028 -0.1865
    1W        W35480  18.789  14.363   7.015 -0.0050  0.0613 -0.0330
    1W        W35481  28.996  17.014   8.989  0.2365  0.0972 -0.2050
    1W        W35482  21.727  26.790   2.599  0.1675 -0.2677 -0.3299
    1W        W35483  14.131   0.347   2.050 -0.1503 -0.0997  0.0268
    1W        W35484  15.195   5.125   1.679 -0.0862 -0.1182  0.2990
    1W        W35485  28.834   4.245   0.165 -0.1232  0.1182  0.1720
    1W        W35486   8.861  28.010   7.644  0.1083  0.2486  0.3029
    1W        W35487  22.128  27.354   3.235  0.0799  0.3662  0.0470
    1W        W35488   2.786   7.186   8.748 -0.3053  0.2098 -0.0151
    1W        W35489  25.447  15.705   9.087 -0.0697 -0.0013  0.3826
    1W        W35490   9.923  24.191   9.044 -0.0046 -0.2740  0.1517
    1W        W35491  23.769   5.572   1.179 -0.1617  0.1777 -0.0191
    1W        W35492   2.698   8.593   7.524  0.1690  0.0085 -0.1579
    1W        W35493  29.602   9.344   7.213  0.1672 -0.1684 -0.0285
    1W        W35494  14.199  16.071   8.166 -0.0340  0.2524 -0.0801
    1W        W35495  14.544  24.457   0.105 -0.0223  0.0148 -0.0989
    1W        W35496   3.857  22.740   1.737  0.1211  0.1262  0.0559
    1W        W35497  20.737   2.479   1.860  0.0377 -0.1357  0.1898
    1W        W35498  13.611  22.064   1.135  0.0302  0.1869  0.1665
    1W        W35499  23.379   7.243   8.600 -0.1291  0.1138  0.1048
    1W        W35500  24.826  12.952   8.951 -0.2176  0.0644 -0.0189
    1W        W35501  10.641  29.415   6.502 -0.0246  0.0872 -0.5521
    1W        W35502  29.058  18.210   0.416  0.1063 -0.0509 -0.1637
    1W        W35503   9.491   6.338   0.496  0.1010 -0.0416 -0.3260
    1W        W35504  16.114   2.220   6.454  0.2217 -0.3567 -0.1493
    1W        W35505  24.468  21.473   1.259 -0.0867  0.0708 -0.0009
    1W        W35506   9.108   6.714   8.989  0.4544  0.0718 -0.0551
    1W        W35507  20.730  24.232   8.723  0.1461  0.1761 -0.0682
    1W        W35508  24.888  30.053   8.514  0.1943  0.0195 -0.2462
    1W        W35509  16.191   3.954   0.904 -0.1994  0.2907 -0.0753
    1W        W35510   8.410  21.043   6.896  0.2108 -0.0524  0.2719
    1W        W35511  25.216   3.357   0.580  0.4010 -0.0565  0.1258
    1W        W35512  23.043  16.571   2.425 -0.0399  0.1225  0.0949
    1W        W35513  23.516  15.720   7.997 -0.0469 -0.1080  0.2165
    1W        W35514   1.308  29.497   0.957 -0.5248 -0.1989 -0.0106
    1W        W35515  14.958   4.585   1.118  0.0611  0.2876  0.3036
    1W        W35516   9.699  13.577   7.716  0.0267  0.0066  0.1434
    1W        W35517   8.291   5.826   6.720 -0.1701 -0.1174 -0.0839
    1W        W35518  18.618   7.084   1.130  0.0440  0.0510  0.1574
    1W        W35519  13.993   1.040   8.103  0.1221  0.1360  0.1538
    1W        W35520   7.988  24.986   6.872 -0.2832 -0.0956  0.1239
    1W        W35521  20.074  21.395   6.686 -0.2100  0.3407  0.1095
    1W        W35522  20.448   8.771   8.284  0.0929  0.1628  0.2782
    1W        W35523  19.182  12.286   6.823  0.2360 -0.3953 -0.3373
    1W        W35524  20.074  29.535   8.771  0.0852  0.3020 -0.1520
    1W        W35525  13.103  22.130   7.116  0.2316 -0.1048 -0.1881
    1W        W35526  21.648  10.295   8.193 -0.0095  0.3020 -0.5107
    1W        W35527  30.227  26.458   2.136 -0.0347  0.2459 -0.0165
    1W        W35528  16.629   9.608   0.003 -0.2590 -0.1484  0.0521
    1W        W35529  19.138   7.548   1.870  0.1655 -0.0896 -0.0598
    1W        W35530   3.907  28.242   8.627  0.2155 -0.3274  0.2450
    1W        W35531  14.104  14.430   8.987 -0.0673 -0.3326  0.1580
    1W        W35532  26.305  11.092   6.673  0.0342 -0.2490 -0.1918
    1W        W35533  29.045  20.279   9.216  0.0898 -0.3240  0.1225
    1W        W35534  26.646  23.361   1.672 -0.2197 -0.1655 -0.1766
    1W        W35535  28.170  18.871   8.389  0.0455 -0.0892  0.1342
    1W        W35536  25.992   1.033   9.095 -0.0491 -0.1888  0.0933
    1W        W35537  12.297  12.748   2.796 -0.0724 -0.0202  0.0885
    1W        W35538  28.408   4.404   9.232  0.1830  0.2936 -0.1435
    1W        W35539  14.115   4.320   0.871  0.1419 -0.0943 -0.0722
    1W        W35540  29.420  27.516   0.393 -0.0095 -0.0056  0.3325
    1W        W35541   4.001  23.834   0.361 -0.0155  0.1115  0.1667
    1W        W35542  11.388   6.248   6.755  0.1348 -0.1829  0.0803
    1W        W35543  20.019   1.610   0.646 -0.1063  0.0331 -0.0074
    1W        W35544   8.037  20.286   6.306  0.2563 -0.0635  0.2336
    1W        W35545  19.695   9.572   7.311  0.0599  0.0040  0.2113
    1W        W35546  20.991   1.634   7.744  0.0875 -0.1452 -0.1911
    1W        W35547  13.714  11.045   7.257 -0.1950  0.0881 -0.2288
    1W        W35548   6.950  22.673   6.788 -0.1343  0.0245 -0.0530
    1W        W35549   1.353   0.613   8.062 -0.1509  0.1934 -0.0262
    1W        W35550  21.785  20.221   7.563  0.0250 -0.0076 -0.2214
    1W        W35551  25.058  25.081   2.202 -0.2088  0.3023  0.3080
    1W        W35552  22.992  20.802   0.478  0.0593 -0.3332  0.0675
    1W        W35553  21.273  12.234   2.242  0.1918 -0.1457  0.0504
    1W        W35554  11.145   8.864   9.128 -0.3957  0.1007 -0.0959
    1W        W35555  14.026  26.370   3.581 -0.0971  0.0389 -0.0419
    1W        W35556  17.034  18.451   6.573 -0.2602  0.1402  0.0143
    1W        W35557  10.900  13.318   7.843  0.2343  0.0880 -0.1871
    1W        W35558   7.032   6.316   6.666 -0.2250  0.2085 -0.1189
    1W        W35559  23.852  30.070   1.625 -0.0859 -0.2129 -0.2135
    1W        W35560  15.015   6.949   0.311  0.1278  0.3877  0.2654
    1W        W35561  16.347  18.996   1.614  0.3853  0.1960 -0.0218
    1W        W35562  14.279  28.118   8.163 -0.4032 -0.3772  0.0215
    1W        W35563  24.566  20.752   1.793 -0.1685  0.2506 -0.1416
    1W        W35564   0.596  25.769   8.015 -0.0944 -0.0933 -0.0524
    1W        W35565  18.895  17.060   8.085 -0.2216  0.1545  0.2970
    1W        W35566   0.915   3.162   1.484  0.0387  0.0298  0.0932
    1W        W35567  29.893   7.050   6.903  0.1852  0.1284  0.1709
    1W        W35568  17.690  15.176   3.255  0.1196  0.1101  0.0591
    1W        W35569  19.023  24.118   6.547  0.0736 -0.2517  0.1008
    1W        W35570   6.551  18.714   0.742 -0.2897 -0.1127 -0.3070
    1W        W35571   8.253  10.724   8.103  0.0217  0.0856  0.0372
    1W        W35572  27.096  23.797   7.431 -0.0691 -0.2221  0.0477
    1W        W35573  17.516  25.083   8.855 -0.1076 -0.1039  0.0790
    1W        W35574  20.891  11.405   7.380  0.1332  0.0195 -0.1916
    1W        W35575  11.826  17.160   7.885  0.3109 -0.0632 -0.0243
    1W        W35576   6.737   5.289   1.768  0.4108 -0.0713 -0.1741
    1W        W35577  25.588   0.024   8.089  0.1383  0.1115  0.1049
    1W        W35578   5.160   5.620   9.032 -0.0502 -0.0009 -0.1287
    1W        W35579   2.243   5.069   2.038 -0.0492  0.1653 -0.0223
    1W        W35580  25.485  23.860   8.629  0.1010 -0.1539  0.0801
    1W        W35581  23.958   3.257   1.013  0.1276 -0.0444 -0.0395
    1W        W35582  16.981  25.778   6.183 -0.3283  0.2834 -0.0899
    1W        W35583   0.240  28.971   2.712  0.2792  0.0479  0.0502
    1W        W35584  12.972  16.715   8.169 -0.0019  0.2377  0.1592
    1W        W35585  26.596  24.310   1.470 -0.0714  0.2286  0.0206
    1W        W35586  24.127   7.957   7.452 -0.2618  0.1643  0.0930
    1W        W35587   2.690   2.952   2.152 -0.0340 -0.0359  0.0584
    1W        W35588  13.339  29.859   0.513 -0.1310 -0.0813 -0.0097
    1W        W35589  21.263   0.006   3.148  0.0650  0.0265  0.0470
    1W        W35590   1.899  17.774   0.999 -0.2493  0.4579  0.2056
    1W        W35591  14.824  13.000   1.634 -0.0835  0.0824 -0.0287
    1W        W35592   4.578   9.878   7.288 -0.0262  0.1702 -0.0191
    1W        W35593  22.339  18.354   8.097  0.2828 -0.2170 -0.0116
    1W        W35594  21.017   1.224   8.186 -0.0996  0.0208 -0.0629
    1W        W35595  10.577  19.664   7.802  0.2206  0.1172  0.2570
    1W        W35596  13.833  24.324   0.648 -0.0006 -0.1213  0.0397
    1W        W35597  20.974   2.873   0.319  0.0530  0.0053 -0.2663
    1W        W35598  18.381   2.473   6.803  0.1256 -0.0277  0.2696
    1W        W35599  13.173   9.345   3.093 -0.5604 -0.1893 -0.2514
    1W        W35600  20.152   4.247   8.701  0.0947 -0.2929 -0.2208
    1W        W35601  24.223  29.215   1.603 -0.0830  0.1882  0.1815
    1W        W35602   2.079  15.872   7.608  0.2406  0.4362 -0.2151
    1W        W35603  15.963  29.309   8.652  0.0241  0.0532  0.1134
    1W        W35604  23.099  19.680   7.159 -0.0187  0.2533 -0.0164
    1W        W35605  18.855  22.441   6.917 -0.1552 -0.0269 -0.1450
    1W        W35606  30.008  25.419   6.841  0.2153 -0.2647  0.0503
    1W        W35607  14.479  16.558   1.304  0.1275 -0.0458 -0.1045
    1W        W35608  22.503  27.094   2.819 -0.2528 -0.0060 -0.2326
    1W        W35609  18.246   7.132   1.470  0.1770 -0.1235  0.0256
    1W        W35610  23.470  12.173   6.845  0.1647 -0.2013 -0.3663
    1W        W35611  24.778  18.402   7.666  0.0258 -0.0059 -0.4334
    1W        W35612  19.955  13.784   7.121 -0.1755 -0.0467 -0.1312
    1W        W35613  18.703  15.247   7.530  0.4207 -0.0530  0.3838
    1W        W35614  25.265  15.231   8.843 -0.1058 -0.2799 -0.1518
    1W        W35615   4.462  25.071   8.162 -0.1215 -0.1095 -0.0045
    1W        W35616  18.720  22.486   1.943  0.2997 -0.0971  0.1436
    1W        W35617  23.116  16.920   5.746  0.0631  0.1808 -0.1518
    1W        W35618  17.098  27.061   8.232  0.2396 -0.3453  0.0276
    1W        W35619   0.580  20.417   7.216  0.1175  0.1221 -0.1162
    1W        W35620  21.453   7.776   7.093  0.3242  0.0747 -0.2625
    1W        W35621   3.670  14.218   0.021  0.1138 -0.1654  0.1915
    1W        W35622  15.985  23.273   7.470  0.0182  0.0198 -0.0731
    1W        W35623   3.447  13.494   0.649 -0.0610 -0.0613 -0.1732
    1W        W35624  29.215  15.275   7.183  0.2113 -0.0907  0.2560
    1W        W35625  23.454   3.875   0.635 -0.0935 -0.2003 -0.0327
    1W        W35626  16.669  13.536   7.934 -0.0807  0.1002  0.2479
    1W        W35627  21.558  23.751   0.180  0.1203 -0.1132 -0.0208
    1W        W35628  18.522  20.439   2.241  0.0303  0.1635  0.0316
    1W        W35629   4.553  23.847   6.373 -0.4003  0.3070  0.1893
    1W        W35630  12.763   5.920   1.326  0.3815  0.2152 -0.4108
    1W        W35631   4.570   4.207   9.199 -0.1482 -0.0273  0.0664
    1W        W35632  23.057   7.439   8.254  0.1366 -0.0378  0.0784
    1W        W35633  29.262  13.079   7.751  0.0134  0.3317 -0.2191
    1W        W35634  28.616  15.979   8.408 -0.0109 -0.0770  0.1817
    1W        W35635  18.013  16.261   8.293 -0.1365  0.2624  0.4196
    1W        W35636  13.906  15.492   2.443 -0.2623  0.1245  0.1273
    1W        W35637   8.270  21.670   0.162 -0.2225 -0.0152 -0.0875
    1W        W35638  21.192   4.282   8.530 -0.0692 -0.1240  0.0340
    1W        W35639  21.176  12.685   8.534 -0.0558 -0.1828 -0.3291
    1W        W35640  16.264   1.603   7.923  0.2005 -0.0312  0.2062
    1W        W35641   6.772  27.654   8.627  0.2190  0.1012  0.0188
    1W        W35642  18.791  19.552   7.273  0.2125  0.1890  0.1815
    1W        W35643  19.032   0.718   8.109 -0.0498  0.0820 -0.0092
    1W        W35644  25.512  20.757   1.756 -0.1376  0.2154 -0.1664
    1W        W35645  12.122  26.033   8.304  0.2536  0.1246 -0.1567
    1W        W35646   1.307  11.388   2.213  0.1380  0.3450  0.1788
    1W        W35647  14.460   9.635   7.397 -0.0855  0.2799  0.0706
    1W        W35648  20.633  14.765   9.057 -0.0346 -0.0317 -0.1115
    1W        W35649  21.723   1.004   0.591 -0.1746 -0.1933  0.1726
    1W        W35650  29.271  11.279   1.997 -0.2195  0.2801 -0.1904
    1W        W35651   6.568  14.947   8.503  0.1741 -0.1651  0.1874
    1W        W35652   2.469  23.820   0.267 -0.0759  0.1924  0.0889
    1W        W35653   5.594   3.856   0.413  0.0427 -0.1163  0.1557
    1W        W35654   4.211  24.738   8.449 -0.2496 -0.2293 -0.0500
    1W        W35655  24.595   1.859   7.545  0.2116 -0.0331  0.2023
    1W        W35656   9.634   6.785   2.668 -0.0079  0.1464 -0.1866
    1W        W35657  11.146  15.780   6.257 -0.1944  0.1073  0.0951
    1W        W35658  19.893   7.412   0.649  0.0517 -0.1890  0.0924
    1W        W35659  25.918   2.178   0.146  0.0613 -0.1365 -0.0104
    1W        W35660  12.008  18.513   0.368  0.1030 -0.0094 -0.0893
    1W        W35661  21.235  14.396   8.369  0.1202  0.3082  0.1513
    1W        W35662  19.061  22.272   7.402 -0.0766  0.3251  0.0737
    1W        W35663  24.252  21.232   7.117  0.0353  0.0828  0.0670
    1W        W35664   2.622   4.495   2.401  0.2252  0.0940  0.1795
    1W        W35665   6.218  23.377   0.346 -0.1574 -0.1099 -0.1545
    1W        W35666   7.691  11.915   8.316  0.0033 -0.1243 -0.3253
    1W        W35667   0.029   3.271   2.936 -0.0169  0.2103 -0.0310
    1W        W35668   6.361  17.465   6.823 -0.0004 -0.1734 -0.1836
    1W        W35669   5.077  24.771   8.085  0.0373  0.1046  0.0095
    1W        W35670   4.243  27.283   2.871 -0.0829 -0.1726  0.0122
    1W        W35671  20.457  30.039   6.993 -0.1026 -0.1812  0.2603
    1W        W35672   1.274   4.303   8.429  0.1018 -0.4230 -0.2316
    1W        W35673   3.716  30.207   1.300  0.0230  0.0242  0.0805
    1W        W35674  12.528  27.056   1.150 -0.1606  0.1806  0.2217
    1W        W35675   9.834  18.602   0.156 -0.0565  0.0419  0.2057
    1W        W35676  22.412  21.781   7.355 -0.1129 -0.1252  0.1009
    1W        W35677   8.818  24.726   6.493 -0.3304  0.2010  0.0592
    1W        W35678   5.959  19.664   0.527 -0.1878  0.3272 -0.0659
    1W        W35679  25.855   8.407   1.480 -0.0999  0.0636 -0.0104
    1W        W35680  25.500   4.506   1.791  0.0697  0.0056  0.1897
    1W        W35681   0.942  17.823   6.871 -0.1840 -0.1277 -0.0098
    1W        W35682  13.679  20.206   0.530 -0.0227  0.1422  0.0964
    1W        W35683  15.227  27.081   1.677 -0.1454 -0.2445 -0.1030
    1W        W35684  17.177   0.712   2.529 -0.0444  0.0344  0.0732
    1W        W35685  24.764  27.894   8.060 -0.0262  0.0069 -0.2295
    1W        W35686  19.558  20.761   0.495  0.0836 -0.1745  0.1916
    1W        W35687   1.487   2.827   6.983 -0.0136  0.1060 -0.0292
    1W        W35688  19.527  15.317   6.083  0.6027 -0.0855 -0.0903
    1W        W35689  17.092   0.629   0.987 -0.1543  0.0361  0.0863
    1W        W35690   9.499  23.939   1.164 -0.1171  0.3754 -0.2814
    1W        W35691   3.676  12.737   1.165  0.2035  0.1805 -0.3183
    1W        W35692  14.882   4.387   6.943 -0.2086 -0.2237  0.0127
    1W        W35693  17.143  23.747   6.698  0.1535 -0.0074 -0.3776
    1W        W35694   8.365  10.039   2.649 -0.1481  0.2123  0.0925
    1W        W35695  16.647   6.950   7.919 -0.2733  0.3566 -0.1633
    1W        W35696   8.804   2.144   2.573 -0.0376 -0.0715 -0.0537
    1W        W35697   2.741  29.355   0.712 -0.2172 -0.2038  0.0703
    1W        W35698  26.348  14.067   1.197  0.2740 -0.0351  0.4347
    1W        W35699  16.210  17.894   8.327 -0.0733  0.0180 -0.1383
    1W        W35700  18.596   5.594   5.858  0.0167  0.2434  0.2526
    1W        W35701  27.409   3.385   9.204  0.0539 -0.0033 -0.0827
    1W        W35702  27.392   1.075   7.231  0.2128 -0.0888 -0.1894
    1W        W35703   9.145  22.672   2.460 -0.1635  0.4658  0.0254
    1W        W35704  24.667  22.872   6.446 -0.2487 -0.2659  0.1985
    1W        W35705  15.104   6.377   6.120  0.1251 -0.2399 -0.1260
    1W        W35706   0.264  30.154   2.718  0.0057 -0.0094  0.1856
    1W        W35707   6.323  21.834   0.975  0.0347 -0.0645 -0.0051
    1W        W35708  23.269  14.979   6.758  0.0578  0.0870  0.1109
    1W        W35709   8.169  16.289   1.029 -0.0506  0.0146 -0.3074
    1W        W35710  14.311   3.342   1.779  0.0797  0.1008 -0.1360
    1W        W35711  28.130  17.867   0.409 -0.4711  0.2034  0.0232
    1W        W35712  20.662   6.963   1.976 -0.0987 -0.3239 -0.2465
    1W        W35713  22.333  11.701   7.282  0.1637  0.1056  0.3307
    1W        W35714  12.325   1.691   1.270 -0.0418 -0.1582 -0.3019
    1W        W35715   7.159   9.933   8.324  0.5071  0.1476 -0.1298
    1W        W35716  13.379   8.610   0.229 -0.1944 -0.4963  0.1498
    1W        W35717  13.440  29.006   2.609  0.1581 -0.3857 -0.2502
    1W        W35718  26.616  19.315   1.325  0.0963  0.2542 -0.0110
    1W        W35719   2.705  13.584   8.786 -0.0841  0.0880 -0.0360
    1W        W35720  19.125   6.759   7.166  0.0223  0.1127 -0.0601
    1W        W35721  21.539  14.608   0.440  0.0277  0.3402 -0.0237
    1W        W35722  18.479   4.230   1.830 -0.2464  0.1352 -0.0278
    1W        W35723  16.470   3.188   8.481  0.2616 -0.1471  0.0608
    1W        W35724  11.662   8.973   7.484 -0.0281 -0.1752 -0.1914
    1W        W35725  23.105  16.202   2.087 -0.0996  0.3355 -0.0757
    1W        W35726  16.497  30.218   1.873 -0.0829 -0.1456  0.3174
    1W        W35727  15.528   9.382   7.299 -0.2125 -0.0511 -0.1400
    1W        W35728  16.282   4.197   8.564 -0.0098  0.1674  0.0058
    1W        W35729  29.745  21.927   7.855  0.1404  0.0712 -0.1194
    1W        W35730  12.470  28.252   7.194  0.1035 -0.0284  0.0584
    1W        W35731  29.889  27.308   7.363 -0.2472 -0.1823 -0.0014
    1W        W35732  10.359  29.775   2.467 -0.1934 -0.0460  0.2299
    1W        W35733  26.335  11.430   7.627  0.3397  0.0240 -0.3406
    1W        W35734  10.608   8.113   7.162 -0.2202  0.3418 -0.0548
    1W        W35735  15.878   7.164   6.624 -0.2863  0.0537  0.2161
    1W        W35736  15.741  19.521   0.732  0.0448  0.2911 -0.0202
    1W        W35737  27.382  26.249   2.315 -0.0291 -0.0803 -0.4041
    1W        W35738   9.326  22.613   6.628 -0.1872 -0.3754  0.1470
    1W        W35739  27.329  21.675   8.302 -0.0688 -0.0802 -0.0551
    1W        W35740   2.261   9.356   9.171 -0.3059 -0.2862  0.1355
    1W        W35741   3.469  28.775   0.943 -0.0575  0.0492  0.1498
    1W        W35742  18.753  17.513   6.580  0.1976 -0.1080  0.0632
    1W        W35743   0.336   9.900   8.076  0.1230 -0.1270  0.1265
    1W        W35744   9.659  11.442   1.077  0.0136 -0.0490  0.3670
    1W        W35745  26.550  26.321   8.635  0.0751 -0.0453  0.1618
    1W        W35746   1.971  25.349   7.865  0.1273 -0.2464  0.1931
    1W        W35747  25.787  23.388   0.796  0.4301 -0.0937  0.4386
    1W        W35748  21.630  27.247   2.326  0.5071 -0.3420 -0.0361
    1W        W35749   8.586  14.175   7.938 -0.0683 -0.0298  0.0827
    1W        W35750  21.556   3.032   0.163  0.0547  0.0784  0.0602
    1W        W35751  13.069  30.133   0.896 -0.0194 -0.1571  0.0171
    1W        W35752   1.654   6.234   0.022  0.4143 -0.3833  0.0392
    1W        W35753  23.094  17.621   0.295  0.0218 -0.0442 -0.0729
    1W        W35754  15.429   2.200   0.791 -0.1774 -0.2330 -0.0183
    1W        W35755   9.665  23.598   2.661  0.0762  0.6077  0.0492
    1W        W35756  13.382   0.180   2.891 -0.0522  0.1988 -0.0683
    1W        W35757  21.470   1.969   0.567  0.2713 -0.1702 -0.1333
    1W        W35758  18.017  13.725   1.557  0.6062 -0.0230 -0.0890
    1W        W35759  27.373   7.364   1.210 -0.1050  0.2990 -0.3320
    1W        W35760  18.502   3.222   7.304 -0.3175 -0.2592  0.0016
    1W        W35761  11.245  15.518   0.628  0.0655  0.0464 -0.0660
    1W        W35762  11.166  21.061   1.768 -0.1524 -0.2906  0.1165
    1W        W35763   2.168  18.219   0.874  0.0858  0.1846 -0.1855
    1W        W35764  24.469  14.868   1.565 -0.3388 -0.3070  0.0183
    1W        W35765   2.472  24.763   0.592 -0.0839 -0.0916 -0.0696
    1W        W35766  19.207   5.375   8.221 -0.1866 -0.2749  0.0246
    1W        W35767  18.929   0.722   1.351 -0.0701  0.0228  0.0592
    1W        W35768  28.210  13.935   7.436  0.1012  0.2354 -0.0363
    1W        W35769  21.207  28.148   8.996 -0.1698  0.0404 -0.0169
    1W        W35770   2.551   8.458   0.861 -0.1526  0.1558  0.2491
    1W        W35771   1.991   5.303   1.653  0.7656  0.2391  0.0673
    1W        W35772   1.576  28.098   0.693  0.5766 -0.2148 -0.1044
    1W        W35773  17.789  18.874   7.939 -0.0442 -0.3583  0.1703
    1W        W35774  12.815  19.850   1.103  0.0498  0.3308  0.1471
    1W        W35775  27.648  29.317   3.632 -0.3029  0.1226  0.3364
    1W        W35776  26.156   3.390   1.901  0.0540 -0.2300 -0.0330
    1W        W35777   4.314   5.563   8.960  0.1401  0.2610 -0.0734
    1W        W35778  22.612   2.559   0.333  0.1630  0.2426 -0.3740
    1W        W35779  16.339  18.785   1.025 -0.0806  0.3382 -0.1722
    1W        W35780   4.942  17.893   1.265 -0.0689 -0.1803 -0.1379
    1W        W35781  17.795   2.138   7.399  0.1493  0.0398 -0.2004
    1W        W35782  28.327  13.548   7.084  0.0207 -0.0269  0.2683
    1W        W35783  14.595  29.795   0.003 -0.1805 -0.2289  0.0539
    1W        W35784  19.285  21.587   1.550  0.0816 -0.2236 -0.2863
    1W        W35785  13.518   4.513   1.837 -0.0037  0.1637 -0.0892
    1W        W35786   4.710   4.577   8.182  0.0001  0.0414 -0.3775
    1W        W35787   7.927   4.558   8.184 -0.0304  0.2464 -0.2777
    1W        W35788  22.676  18.908   1.309 -0.1053  0.0890  0.0938
    1W        W35789   7.890  25.750   8.940  0.0269 -0.0057  0.0262
    1W        W35790   0.045   2.435   7.807 -0.1080 -0.0606 -0.1990
    1W        W35791  19.094   7.439   6.359 -0.5645  0.2328 -0.1072
    1W        W35792  15.501   6.170   8.445  0.1251  0.0229  0.2330
    1W        W35793   4.969  14.488   1.718 -0.0204  0.1271  0.1226
    1W        W35794  12.193  16.066   7.095  0.0401  0.1714 -0.1554
    1W        W35795  13.206  12.756   2.295 -0.1837 -0.1403 -0.2803
    1W        W35796  28.721   3.268   7.844  0.0942  0.1064 -0.1073
    1W        W35797   2.959  21.208   7.968 -0.1743 -0.1498 -0.2914
    1W        W35798  21.430  16.375   7.638  0.0994  0.0786 -0.1196
    1W        W35799  19.634   1.371   2.382  0.1051 -0.1289 -0.1405
    1W        W35800  18.077   3.342   0.430 -0.3846 -0.0375  0.0323
    1W        W35801   7.170   1.521   1.379  0.0146 -0.2091  0.1875
    1W        W35802  18.642   9.364   7.734 -0.1139  0.0844 -0.0302
    1W        W35803  30.004  24.910   7.634 -0.0831 -0.0390  0.0810
    1W        W35804  22.422  25.817   1.634 -0.0655  0.1665 -0.0721
    1W        W35805  18.894  15.544   7.173  0.2376  0.0356  0.0066
    1W        W35806   7.619   2.971   9.109 -0.2048 -0.1571  0.0266
    1W        W35807  17.534  27.819   2.344 -0.4499 -0.2178  0.1759
    1W        W35808  16.791  19.922   6.628 -0.0556  0.2123  0.0513
    1W        W35809   9.414   3.619   8.979 -0.0907  0.1278 -0.1214
    1W        W35810  17.829  13.567   0.058 -0.0765  0.2252 -0.0405
    1W        W35811  21.008  23.083   1.654  0.4385  0.0290 -0.0152
    1W        W35812   5.433   3.164   8.018 -0.0353 -0.0957 -0.1378
    1W        W35813  20.130  14.672   7.027  0.2397 -0.0843 -0.0435
    1W        W35814  26.785  22.366   7.372 -0.3652  0.1928 -0.0925
    1W        W35815   3.127   7.148   8.325  0.2725  0.0352  0.1080
    1W        W35816   6.458  19.457   7.733  0.0142 -0.0298  0.1953
    1W        W35817  29.718   7.750   2.971  0.2688 -0.1559  0.1460
    1W        W35818  21.952   6.174   7.987  0.0927  0.0081 -0.2771
    1W        W35819  17.018   0.385   8.043  0.1461  0.0061  0.0271
    1W        W35820  14.649  10.748   3.115 -0.0208  0.1799  0.2139
    1W        W35821  11.481  18.365   1.918 -0.1037  0.1926  0.3768
    1W        W35822  10.729  27.467   1.375 -0.1240 -0.1706 -0.0186
    1W        W35823   9.315  22.813   7.620 -0.1138  0.3204 -0.0735
    1W        W35824  24.857  20.069   1.479  0.2871  0.0548 -0.1352
    1W        W35825  12.793  23.815   1.546  0.2221  0.2943  0.0002
    1W        W35826   0.222  14.607   0.596 -0.1044 -0.2423 -0.1357
    1W        W35827   4.008  18.840   7.197  0.1678 -0.2699  0.4549
    1W        W35828   5.004  15.135   6.397  0.2683 -0.1054  0.1216
    1W        W35829   2.627  16.471   1.594  0.0716 -0.1345 -0.1556
    1W        W35830  23.911  23.601   2.436 -0.0510  0.1963 -0.0418
    1W        W35831  20.483  13.677   7.034  0.1580 -0.2229  0.0467
    1W        W35832   8.218  14.850   7.593 -0.1985 -0.0597 -0.0369
    1W        W35833   4.892  29.292   3.948  0.0827  0.0551  0.0355
    1W        W35834  20.558   9.345   7.148 -0.1424  0.0375  0.2005
    1W        W35835  13.554  20.660   8.986  0.0929 -0.0224  0.1347
    1W        W35836  12.674  30.023   7.909 -0.0469  0.0074  0.0072
    1W        W35837  11.310  24.498   2.600  0.2321  0.1203  0.2074
    1W        W35838  22.903  17.812   1.386 -0.2615  0.0616  0.0443
    1W        W35839   8.394  21.690   7.540  0.0822 -0.0277 -0.0069
    1W        W35840  28.114  14.760   9.205 -0.6076 -0.2096  0.5225
    1W        W35841  28.886  28.742   7.339 -0.1257 -0.0117 -0.4368
    1W        W35842   4.659  24.533   8.186  0.0989  0.0742 -0.1830
    1W        W35843   6.407  21.387   8.253  0.0600 -0.0864  0.0125
    1W        W35844  21.685  20.304   6.359 -0.3493  0.1335  0.2389
    1W        W35845   4.629  18.205   7.546 -0.3236  0.1097 -0.2376
    1W        W35846   3.820  16.007   1.390 -0.0961 -0.0224 -0.0589
    1W        W35847  13.229   4.038   0.955  0.0588 -0.2817 -0.0723
    1W        W35848  24.928  14.522   5.905 -0.2223  0.3834 -0.0906
    1W        W35849  15.360   1.075   8.705  0.0570 -0.1003 -0.1790
    1W        W35850  14.649  18.787   8.208 -0.0371 -0.2883 -0.2104
    1W        W35851   0.806   7.142   7.468  0.2874 -0.0225 -0.1052
    1W        W35852  26.007  24.395   2.173  0.1147 -0.1637  0.2491
    1W        W35853   1.228   6.479   8.674 -0.1038 -0.1343 -0.1824
    1W        W35854   4.234  21.773   7.843 -0.1036 -0.0321 -0.2180
    1W        W35855  24.687   0.059   0.940  0.2221  0.2225 -0.1693
    1W        W35856  18.773   9.891   1.205  0.4177 -0.0559  0.0195
    1W        W35857  17.144   4.048   7.331 -0.4494  0.1654  0.0068
    1W        W35858   8.182  25.094   7.500 -0.2411  0.0462 -0.0098
    1W        W35859   7.309  29.028   1.921 -0.5128  0.1557 -0.0365
    1W        W35860  29.312  22.233   1.852 -0.1119  0.0692 -0.0358
    1W        W35861   7.082  16.405   0.263  0.1966  0.2114 -0.0516
    1W        W35862  10.514   6.323   8.332 -0.2365  0.4126 -0.0714
    1W        W35863  17.567  30.317   2.897 -0.1994 -0.2170  0.1778
    1W        W35864  10.425  11.991   7.802 -0.0546 -0.0855  0.1889
    1W        W35865  12.928   5.997   8.692 -0.0630 -0.0586  0.0262
    1W        W35866   0.620   1.602   0.304 -0.1024  0.4469 -0.3328
    1W        W35867   3.434   7.079   1.083  0.0479  0.0067  0.2135
    1W        W35868  22.426  11.934   0.292 -0.3531 -0.1582  0.1129
    1W        W35869  18.123  15.051   6.977  0.1247  0.2561 -0.0767
    1W        W35870   7.450  27.381   6.794 -0.4547  0.2321 -0.3728
    1W        W35871  14.280  12.501   0.527  0.0099  0.0170 -0.0780
    1W        W35872  17.460   9.912   8.800 -0.2414  0.1419 -0.2125
    1W        W35873   6.167  17.494   0.242  0.1661 -0.0177 -0.1399
    1W        W35874   5.583   3.317   3.614 -0.2552  0.1221  0.0540
    1W        W35875  18.345  27.306   7.616 -0.2319 -0.2690  0.0766
    1W        W35876  13.461  22.379   0.178  0.2594 -0.0770  0.0313
    1W        W35877  12.008   4.684   7.958 -0.4031  0.1552 -0.1638
    1W        W35878  16.094  25.125   2.068  0.0322  0.1282 -0.1641
    1W        W35879  19.800  19.769   6.469 -0.0172 -0.0739 -0.0940
    1W        W35880   6.427  24.706   8.988 -0.0115  0.0030  0.3774
    1W        W35881  16.361  24.593   2.291  0.2052  0.2057 -0.2745
    1W        W35882  23.959  14.095   1.328  0.1490  0.0019  0.2873
    1W        W35883  28.471  29.084   2.661 -0.0233  0.4513  0.0148
    1W        W35884   3.248  18.151   9.010 -0.2562 -0.1548 -0.0904
    1W        W35885   8.764  21.892   0.961  0.1286 -0.1229  0.4070
    1W        W35886  14.026  10.977   2.681 -0.1493  0.0966  0.2162
    1W        W35887   4.480  10.836   7.218 -0.1173 -0.1251 -0.0062
    1W        W35888  24.106  22.337   8.518  0.2457  0.1259 -0.1023
    1W        W35889  16.514  13.398   2.447  0.0443  0.1831  0.1035
    1W        W35890   6.183   2.632   0.526 -0.0161  0.3142  0.1006
    1W        W35891  24.611  24.430   1.678  0.3581 -0.1017  0.1053
    1W        W35892   2.028   2.336   2.779 -0.3833 -0.0118 -0.2333
    1W        W35893  19.516  26.835   8.119  0.0450  0.1124  0.1943
    1W        W35894  18.638   1.361   6.016 -0.4452  0.0988  0.0933
    1W        W35895  23.103   2.392   0.676 -0.0791  0.1111 -0.1464
    1W        W35896   9.593  25.212   0.498  0.0719  0.0274  0.0697
    1W        W35897  22.590  24.411   7.515  0.2556  0.2438 -0.0217
    1W        W35898  20.458  27.852   0.281 -0.1866 -0.0202  0.0546
    1W        W35899  20.231   6.125   6.642  0.1308 -0.0071 -0.1894
    1W        W35900   5.469   7.365   0.113 -0.1423 -0.0093 -0.1455
    1W        W35901   0.647  16.992   7.293 -0.2374  0.0491  0.0639
    1W        W35902  30.033  30.229   0.784 -0.2221 -0.0787  0.2321
    1W        W35903  21.307   0.286   7.263  0.1850 -0.2464  0.0923
    1W        W35904  12.475  22.045   0.613  0.1744 -0.4831  0.1657
    1W        W35905  14.115  24.186   7.283  0.1928  0.0055  0.0477
    1W        W35906  30.258  26.047   2.471  0.2726 -0.0317 -0.1939
    1W        W35907  24.973  22.764   2.408  0.0685 -0.2393  0.1244
    1W        W35908   8.173  16.641   0.213  0.0945 -0.4074  0.2612
    1W        W35909   5.825   6.987   0.568 -0.0472  0.2794 -0.0366
    1W        W35910  20.714  11.470   1.447  0.1518  0.0445 -0.1931
    1W        W35911  19.585  26.866   0.673 -0.0833 -0.0534  0.1650
    1W        W35912  12.788  11.083   7.091  0.3031 -0.0618 -0.1040
    1W        W35913   6.037   8.340   9.204 -0.0266 -0.1474  0.2061
    1W        W35914   7.062   7.368   2.018 -0.1132  0.0336 -0.0723
    1W        W35915  16.242  13.041   2.273  0.1095 -0.0459  0.2250
    1W        W35916   0.855  13.304   1.422  0.2611 -0.0492  0.1503
    1W        W35917  22.772  16.362   8.964 -0.0389 -0.3548  0.0912
    1W        W35918  13.308  27.873   7.293 -0.0402 -0.1293  0.2297
    1W        W35919  20.125  17.468   8.062  0.0339 -0.0172 -0.0610
    1W        W35920   9.316   7.677   1.991 -0.2523  0.1783  0.0051
    1W        W35921  28.087   4.222   7.976 -0.4004 -0.0220  0.0989
    1W        W35922  16.963   8.489   5.777  0.3197  0.2491  0.0537
    1W        W35923   6.300  17.002   8.247  0.2416  0.1502 -0.2441
    1W        W35924   8.736  25.274   7.517  0.1319  0.1849  0.0860
    1W        W35925  25.533   7.860   1.657 -0.0626 -0.3328 -0.2917
    1W        W35926  29.959   9.603   1.787 -0.0483 -0.2065 -0.3895
    1W        W35927  24.301   2.105   0.103 -0.2229 -0.0141  0.0630
    1W        W35928   8.924   1.850   0.866  0.2405  0.1063 -0.2151
    1W        W35929   0.387  26.202   7.877  0.0608 -0.0006  0.0358
    1W        W35930  15.556  19.467   6.837  0.1278  0.0290 -0.1485
    1W        W35931  16.417  20.624   7.170 -0.1747  0.4370 -0.0591
    1W        W35932  17.586  28.187   6.963 -0.3409 -0.0084 -0.0887
    1W        W35933  30.167  26.984   1.634  0.1464  0.0633  0.3118
    1W        W35934  10.505  17.235   8.310  0.0220  0.2346  0.1204
    1W        W35935   9.823   4.321   7.440  0.2016  0.2518 -0.1592
    1W        W35936  27.312   2.358   2.465 -0.0306 -0.2373  0.2870
    1W        W35937  19.674  29.122   1.718  0.3253  0.0279 -0.1442
    1W        W35938   9.746  27.758   0.708  0.0138  0.1950  0.0893
    1W        W35939  26.471   7.484   8.297  0.1849 -0.2328  0.0396
    1W        W35940  27.559   4.786   1.912  0.3224  0.2379  0.1424
    1W        W35941   2.883  20.886   8.722 -0.1028 -0.2342  0.0784
    1W        W35942  19.979   4.062   0.672  0.0080 -0.1522  0.2673
    1W        W35943   1.641  27.203   0.755  0.0637  0.0702 -0.1142
    1W        W35944  22.233  17.871   8.091  0.0122 -0.1588  0.3418
    1W        W35945   9.565   5.200   0.753 -0.0640  0.0173  0.0219
    1W        W35946  22.219  27.103   1.000 -0.0438 -0.0310  0.0236
    1W        W35947  13.840  23.978   9.253  0.0242 -0.1920 -0.0304
    1W        W35948  15.979   6.243   6.308  0.1476 -0.4263 -0.1364
    1W        W35949  28.715   9.798   1.080 -0.0169  0.1319 -0.1243
    1W        W35950   0.436  24.619   7.764  0.0704  0.0990 -0.2246
    1W        W35951  22.347  20.883   7.827 -0.1894 -0.0080 -0.1384
    1W        W35952  17.406  16.691   5.997 -0.0909 -0.0368  0.0466
    1W        W35953   7.369  14.979   8.748 -0.2983  0.0726 -0.1117
    1W        W35954  19.817   6.188   9.271 -0.1635 -0.1049 -0.2315
    1W        W35955   6.787   7.422   2.675  0.0850 -0.2301 -0.0885
    1W        W35956   2.852   0.590   8.168  0.0659 -0.0616  0.1775
    1W        W35957  15.224  20.085   8.591 -0.3572  0.1417 -0.0313
    1W        W35958  24.406  21.798   0.289 -0.3695  0.1464  0.0929
    1W        W35959   4.994  14.427   8.286  0.0072 -0.0230  0.1112
    1W        W35960   6.880   0.242   0.079 -0.0937 -0.1141  0.2663
    1W        W35961   3.134  10.759   7.466  0.0416 -0.0363  0.3050
    1W        W35962  26.281   8.137   6.705  0.0138 -0.1362 -0.0208
    1W        W35963   6.784  25.347   1.884  0.1152 -0.2452  0.0149
    1W        W35964   3.787  19.640   1.130  0.0982  0.2385  0.1019
    1W        W35965   3.327  29.746   2.058 -0.0270  0.1803 -0.0684
    1W        W35966   2.460   9.215   1.595 -0.0837  0.2270 -0.1426
    1W        W35967  16.527   3.806   1.732  0.0355 -0.1503 -0.0184
    1W        W35968  30.005  13.519   0.879 -0.1651 -0.0611 -0.2057
    1W        W35969  15.589   7.568   1.315 -0.1139 -0.1548  0.1603
    1W        W35970  12.421   0.246   6.392  0.1352 -0.0492 -0.2438
    1W        W35971   3.513  17.401   7.259  0.0386 -0.0243  0.2348
    1W        W35972  27.969   4.636   2.666  0.2799  0.2394 -0.1139
    1W        W35973   0.427  11.645   1.077 -0.0483 -0.0859  0.0368
    1W        W35974  25.719   3.838   1.060 -0.3111 -0.1121 -0.1134
    1W        W35975  17.178  14.208   1.611 -0.0329  0.3443  0.0275
    1W        W35976  18.985  27.479   0.081 -0.0735  0.2645 -0.0390
    1W        W35977  21.743   8.876   1.957 -0.1842 -0.0148 -0.1105
    1W        W35978   1.057   0.371   7.781  0.4181  0.2165 -0.2892
    1W        W35979  23.519  21.867   6.864  0.0853  0.1157 -0.0726
    1W        W35980  13.761  14.079   0.028 -0.1572  0.2532  0.1477
    1W        W35981   8.158  27.556   6.219  0.0421  0.2443  0.3600
    1W        W35982   3.822   6.777   6.716 -0.1544  0.2434  0.0751
    1W        W35983  18.699  13.164   8.499 -0.1733  0.1901 -0.0695
    1W        W35984   3.298  30.289   2.899 -0.1701  0.0616 -0.4126
    1W        W35985   3.305  15.146   7.866  0.0003 -0.0576  0.2890
    1W        W35986   5.586   3.395   2.275 -0.2254  0.3206  0.0858
    1W        W35987  16.735   6.392   1.069  0.0598 -0.1132  0.1408
    1W        W35988  19.067   5.965   0.044 -0.1011 -0.0036 -0.0578
    1W        W35989   1.109  23.954   7.549  0.0874 -0.2601 -0.1013
    1W        W35990  11.869  28.219   1.751  0.2290  0.1259  0.0121
    1W        W35991  25.807  29.532   7.998  0.0511 -0.2303 -0.3019
    1W        W35992  16.359   8.687   8.437 -0.1597 -0.1157 -0.1812
    1W        W35993  11.047  12.806   1.264  0.1999 -0.0040  0.3033
    1W        W35994  24.874  26.359   0.559  0.2233 -0.0013 -0.1619
    1W        W35995  28.999  21.204   8.570 -0.1417  0.0790 -0.2366
    1W        W35996  15.683  11.219   8.530 -0.1296 -0.2200  0.5035
    1W        W35997   1.087   6.420   1.280  0.0935  0.2479 -0.1401
    1W        W35998   1.175  24.271   1.886 -0.0276 -0.1963 -0.0604
    1W        W35999  16.963   2.557   1.410  0.0919 -0.0637  0.0652
    1W        W36000  28.296   5.635   2.274  0.3945 -0.3905  0.0991
    1W        W36001  15.249  14.881   7.948  0.2498  0.0063  0.0543
    1W        W36002  16.897  29.132   1.792  0.2463  0.0642 -0.1647
    1W        W36003  30.097   3.322   8.425  0.0371  0.1655  0.0139
    1W        W36004  23.686   1.037   8.233 -0.2513 -0.1890  0.0718
    1W        W36005  26.887  28.451   7.886 -0.2514 -0.1022  0.2196
    1W        W36006  17.928  26.729   8.734  0.0961 -0.4200 -0.2123
    1W        W36007   8.258  19.500   8.400  0.1002 -0.0292 -0.3726
    1W        W36008  19.868   8.615   0.103 -0.2007 -0.0548  0.1539
    1W        W36009  13.116  13.519   8.015 -0.1391 -0.2801 -0.2238
    1W        W36010   4.689   2.958   0.777  0.0751  0.0215  0.1529
    1W        W36011  26.286   6.972   8.479 -0.0107  0.0981 -0.2608
    1W        W36012  20.907  19.061   0.737 -0.0384  0.0974  0.0117
    1W        W36013  29.138  14.330   8.536 -0.3162  0.2214 -0.2533
    1W        W36014   4.772   1.371   1.447 -0.1261 -0.2598  0.0694
    1W        W36015  13.589  14.904   6.839 -0.1510  0.2436 -0.4626
    1W        W36016  26.810  26.103   8.947  0.1666  0.0681 -0.2370
    1W        W36017  30.062   9.582   7.273 -0.0000  0.1607  0.0780
    1W        W36018  15.929  14.295   0.236 -0.2654  0.0856 -0.1142
    1W        W36019  18.803  25.450   8.830  0.0516  0.2382  0.2075
    1W        W36020  19.119  30.185   1.036  0.0186 -0.0113  0.0901
    1W        W36021  20.118  21.313   1.440 -0.0867 -0.1482 -0.2184
    1W        W36022  15.896  20.493   6.918 -0.0013 -0.0654  0.0358
    1W        W36023  18.260   3.896   6.531 -0.1619  0.3971 -0.0173
    1W        W36024   5.433  23.314   1.172 -0.1510  0.2570  0.1063
    1W        W36025   8.956   0.086   1.428 -0.2808 -0.0126 -0.0098
    1W        W36026  11.012  18.722   7.707 -0.2456 -0.0045 -0.1381
    1W        W36027  16.526  25.498   8.803 -0.0511 -0.0195  0.1316
    1W        W36028  12.612  30.105   2.767 -0.1122 -0.0940 -0.0628
    1W        W36029  22.061  28.731   1.284 -0.1664  0.0019 -0.3034
    1W        W36030   5.965  11.001   8.958  0.0521  0.1031 -0.1077
    1W        W36031   7.960  28.915   2.626 -0.2002 -0.3020  0.0074
    1W        W36032  15.508  30.172   0.208 -0.1386  0.1312 -0.1170
    1W        W36033  11.962  28.814   0.517  0.0155 -0.2154  0.0591
    1W        W36034  16.255  14.100   8.672 -0.0410  0.0824 -0.0597
    1W        W36035  12.138  19.200   7.394  0.1568  0.1276 -0.0219
    1W        W36036   2.000   6.270   0.921 -0.4488  0.2658 -0.3314
    1W        W36037  28.494   7.301   8.536 -0.0944 -0.4798 -0.3158
    1W        W36038  19.307  14.470   7.094 -0.2194 -0.1077 -0.0434
    1W        W36039  16.971  22.857   1.640  0.0299  0.0447  0.0656
    1W        W36040  24.246   1.475   1.527 -0.1394  0.0571 -0.1987
    1W        W36041  24.747  23.452   1.786  0.2108 -0.0835 -0.0837
    1W        W36042  20.920  27.034   0.635 -0.1966 -0.2022 -0.4140
    1W        W36043   0.943  27.472   0.430  0.1920 -0.2257  0.1925
    1W        W36044  27.828  11.190   6.642  0.0158 -0.0349 -0.2081
    1W        W36045  24.112  13.477   1.298 -0.0281 -0.0406 -0.1215
    1W        W36046  12.804  16.915   2.550  0.2618  0.1062  0.3362
    1W        W36047  21.202  29.887   3.328 -0.0711  0.0915 -0.0148
    1W        W36048  15.547  19.429   7.355 -0.0619 -0.0064 -0.0297
    1W        W36049   0.695  23.658   7.687 -0.1455 -0.4215  0.1836
    1W        W36050  16.238  25.175   8.483 -0.0010 -0.0336  0.0287
    1W        W36051   7.632  22.088   8.708 -0.3478  0.0961  0.1443
    1W        W36052  10.933  25.091   1.049 -0.0710 -0.0639 -0.2466
    1W        W36053  23.920   8.022   6.645 -0.2742 -0.3040  0.0877
    1W        W36054  19.989  17.445   1.519 -0.0542 -0.0577 -0.0519
    1W        W36055   8.907   6.466   7.100  0.2649 -0.1628  0.0434
    1W        W36056   4.943  23.856   8.918 -0.2249  0.0497  0.0952
    1W        W36057   8.535  27.047   8.566 -0.0280 -0.0607 -0.0295
    1W        W36058  15.341   5.466   7.948 -0.0230 -0.1445 -0.2477
    1W        W36059   0.605  15.975   9.146 -0.1819 -0.2197  0.1563
    1W        W36060   1.983  19.103   7.578 -0.2582  0.0989  0.1071
    1W        W36061  23.067  29.981   8.862 -0.0814  0.0351 -0.1105
    1W        W36062  12.627  26.800   7.392 -0.1471 -0.1894  0.2682
    1W        W36063  19.780   0.104   7.244 -0.3647  0.0752 -0.1508
    1W        W36064  24.232  20.448   0.262  0.1208 -0.2104  0.2300
    1W        W36065  16.636  17.130   8.652 -0.4200  0.5241  0.0341
    1W        W36066   9.537   4.430   8.904 -0.2285 -0.1143  0.2238
    1W        W36067  28.473  29.383   1.705 -0.0693 -0.3348  0.2113
    1W        W36068   3.267   1.136   8.201 -0.0099  0.2746 -0.0066
    1W        W36069  19.224   2.043   0.158  0.0299 -0.1714  0.1023
    1W        W36070  27.378  25.675   2.241  0.0430 -0.1441  0.2151
    1W        W36071  22.405  30.022   8.025 -0.1056  0.1273  0.1205
    1W        W36072   6.605  30.059   0.838  0.1412 -0.1168  0.0843
    1W        W36073  17.009   5.679   7.504  0.1172 -0.1886  0.0065
    1W        W36074  29.145   4.539   1.042  0.1138 -0.1174 -0.0161
    1W        W36075  17.063  27.340   9.216 -0.0282 -0.1253 -0.4208
    1W        W36076  15.024  12.567   3.850  0.2025 -0.0846  0.1111
    1W        W36077  22.658   2.659   6.762 -0.0002 -0.0616 -0.1668
    1W        W36078  22.106  25.450   5.880 -0.0015 -0.1902 -0.1725
    1W        W36079   9.537  27.147   5.997 -0.1332  0.0497  0.1813
    1W        W36080   6.280  15.221   8.764 -0.1466 -0.0775  0.3427
    1W        W36081   6.415  27.459   2.468 -0.1057  0.0172 -0.2070
    1W        W36082  24.363  24.862   6.858  0.1284  0.0370 -0.1247
    1W        W36083  24.672  22.884   8.722 -0.0217 -0.1149  0.0774
    1W        W36084   3.551   0.523   1.797 -0.0575  0.1060  0.1860
    1W        W36085  29.580  14.472   6.907  0.1429  0.2676  0.0527
    1W        W36086   2.177   1.640   1.762 -0.2692 -0.1148  0.3315
    1W        W36087   3.147  28.033   8.167 -0.0236 -0.2795  0.0736
    1W        W36088  17.330  21.664   6.950  0.2016 -0.0628 -0.0066
    1W        W36089   2.921   7.369   7.238 -0.0736 -0.0131 -0.0065
    1W        W36090  21.157  23.935   6.824 -0.1620  0.0710 -0.5059
    1W        W36091  10.179  27.060   6.832 -0.0012 -0.2751  0.2310
    1W        W36092  26.584   2.634   0.203  0.0218  0.0286 -0.0261
    1W        W36093   6.394  18.321   0.525  0.0697  0.2137 -0.1252
    1W        W36094  20.733   7.914   2.070  0.0015 -0.1363 -0.0769
    1W        W36095  13.878  16.948   8.339 -0.2493  0.0095 -0.0112
    1W        W36096   4.303  25.303   7.788  0.3273  0.0505 -0.0386
    1W        W36097  20.617   8.434   1.790 -0.0277  0.2126  0.2977
    1W        W36098   2.476  10.337   7.290 -0.1965 -0.1321  0.1544
    1W        W36099   7.846  17.025   7.323 -0.0712  0.1144  0.1332
    1W        W36100  16.441  28.376   9.199  0.3737 -0.0410 -0.2472
    1W        W36101  25.704  25.023   7.112  0.0834  0.0176 -0.1094
    1W        W36102   2.372  22.165   7.371 -0.0631 -0.0949  0.0651
    1W        W36103  28.063  23.112   9.124  0.2075  0.2629  0.0798
    1W        W36104  26.767  29.023   3.584 -0.1306 -0.2175 -0.1014
    1W        W36105  25.033  10.497   8.197  0.3024 -0.0018  0.0524
    1W        W36106  13.523  14.984   1.250 -0.0945 -0.0837  0.0099
    1W        W36107   1.796   4.341   2.218  0.2538 -0.2549  0.0503
    1W        W36108   7.128  22.604   1.761  0.3069 -0.1876  0.0116
    1W        W36109   3.396   2.426   1.519 -0.0797  0.0731  0.0191
    1W        W36110  20.274   3.012   8.218 -0.1656  0.0191 -0.0945
    1W        W36111  13.472  22.298   5.934  0.1464 -0.1701 -0.3954
    1W        W36112   1.326  19.841   6.966  0.2328 -0.0541  0.1146
    1W        W36113  22.135   3.239   3.354 -0.0999  0.1981  0.1836
    1W        W36114  18.948  12.912   7.882  0.3277  0.0003 -0.1284
    1W        W36115   0.578  29.728   0.199 -0.1716 -0.2725 -0.4386
    1W        W36116  14.781  28.432   0.466  0.2437  0.0572 -0.2550
    1W        W36117  16.611  27.186   8.351 -0.2960  0.2927  0.3494
    1W        W36118   2.783  20.428   8.628 -0.3058  0.0976 -0.0769
    1W        W36119   6.478  25.387   2.462 -0.0029  0.0218 -0.2044
    1W        W36120  11.813  25.661   2.160 -0.2605  0.0368  0.1855
    1W        W36121  22.653  17.874   6.052 -0.0631  0.1332  0.1684
    1W        W36122   0.380  27.836   1.792  0.3418  0.0736 -0.0228
    1W        W36123  27.023  15.564   0.349 -0.0752 -0.1332 -0.4944
    1W        W36124   8.767   8.611   3.429  0.4390 -0.0009  0.1962
    1W        W36125  23.639  24.008   0.398  0.1037 -0.1669  0.1744
    1W        W36126  15.263  13.536   0.867 -0.1429  0.1767 -0.0761
    1W        W36127  28.070   2.738   1.068  0.0399 -0.3585  0.2175
    1W        W36128  22.191  20.621   8.310  0.0867 -0.0027  0.0625
    1W        W36129  19.527   7.958   8.218  0.0777  0.1417 -0.1151
    1W        W36130  23.094   4.925   8.615 -0.3729 -0.1286  0.1102
    1W        W36131  10.022  18.500   1.549  0.1682 -0.0507  0.2179
    1W        W36132  27.937  18.740   6.876 -0.1602  0.0572  0.1084
    1W        W36133  19.015  11.430   7.100  0.1210  0.1346 -0.4272
    1W        W36134  10.848  29.151   8.598 -0.0519  0.3018  0.2276
    1W        W36135  24.390  17.183   7.363 -0.0115  0.1529 -0.0491
    1W        W36136  17.981  29.241   2.247  0.2657  0.2154 -0.1515
    1W        W36137  12.932  28.005   6.975 -0.0117  0.0277  0.4129
    1W        W36138   1.991   9.255   3.092  0.1517 -0.2523 -0.1477
    1W        W36139  18.991  28.324   2.140  0.0928 -0.1091  0.0586
    1W        W36140  10.752  20.146   8.008  0.0583  0.2551  0.2658
    1W        W36141  24.450   4.838   8.995 -0.0386  0.0085 -0.2823
    1W        W36142  15.045   5.116   7.797 -0.0699 -0.1706 -0.0474
    1W        W36143  25.256   8.396   0.233  0.0082 -0.1422 -0.1108
    1W        W36144  22.613  24.657   0.006  0.0403 -0.2617 -0.0843
    1W        W36145   7.319   5.949   2.483 -0.1308 -0.0686 -0.1357
    1W        W36146  13.327  11.354   1.434 -0.2439  0.2898 -0.2584
    1W        W36147   8.036  26.277   7.149  0.1062 -0.2228 -0.0145
    1W        W36148  11.412  19.575   7.675 -0.2366 -0.0054  0.0182
    1W        W36149  25.125  16.077   9.033 -0.1420 -0.0120 -0.0926
    1W        W36150  14.556  12.763   2.585 -0.0094 -0.0214 -0.0883
    1W        W36151  10.868  28.310   0.156  0.0835 -0.1921  0.1192
    1W        W36152  22.556  20.809   2.374 -0.0144 -0.0378  0.0428
    1W        W36153  16.676  22.509   3.035 -0.3208  0.1225 -0.1350
    1W        W36154  26.223   4.447   0.527 -0.1952 -0.1217 -0.2449
    1W        W36155  20.140  27.925   9.035  0.0386  0.1198 -0.1951
    1W        W36156   6.128  19.063   9.253 -0.1793  0.0414  0.2175
    1W        W36157   8.610   2.505   2.908 -0.2244  0.2083  0.2147
    1W        W36158  21.820  11.670   1.462  0.2465  0.4120  0.3514
    1W        W36159  27.233  22.550   7.353 -0.1194  0.0913 -0.4595
    1W        W36160   1.277  10.452   1.254  0.1392  0.0492 -0.1180
    1W        W36161  16.504   8.304   8.698  0.0069  0.2178  0.0001
    1W        W36162  28.630   6.472   8.160 -0.0639 -0.1570 -0.1718
    1W        W36163   1.486   0.566   2.678  0.1322 -0.0732  0.0718
    1W        W36164   8.265  24.610   7.702 -0.2960 -0.1992 -0.1415
    1W        W36165   6.065   3.746   0.288  0.2496  0.1849  0.1806
    1W        W36166  14.734   5.975   1.168 -0.0924 -0.0591 -0.2098
    1W        W36167  23.014  14.884   6.179  0.1110 -0.2393  0.1150
    1W        W36168  17.804   9.648   6.945  0.2077  0.3149 -0.1168
    1W        W36169  23.343  24.102   8.137  0.2956  0.0257 -0.1891
    1W        W36170   1.099  28.553   3.396  0.4624  0.0421  0.0523
    1W        W36171   3.324  25.215   8.920 -0.2756  0.3344 -0.1303
    1W        W36172   1.800  24.950   3.111  0.1788 -0.0266  0.0986
    1W        W36173  11.438  29.397   3.422 -0.2113  0.3079 -0.0119
    1W        W36174  14.030  17.323   8.054  0.0303 -0.0520 -0.1370
    1W        W36175  19.426  17.061   6.290 -0.1740  0.4055 -0.0704
    1W        W36176  11.560  21.510   6.462  0.0369  0.1552 -0.2998
    1W        W36177  17.028  20.755   8.315 -0.1738  0.1649  0.0409
    1W        W36178  12.201   8.229   0.723  0.1537 -0.0313 -0.1168
    1W        W36179  10.831  29.503   7.648 -0.0723 -0.1562  0.2584
    1W        W36180  17.465   8.262   1.103  0.0832 -0.0158  0.0446
    1W        W36181  23.227  29.896   0.794 -0.3419 -0.2443  0.0320
    1W        W36182  20.791  19.214   8.694  0.0115 -0.0020  0.1211
    1W        W36183  13.404  20.268   1.435  0.0101  0.1944  0.0525
    1W        W36184   3.111  25.048   1.849  0.2255 -0.0220  0.1688
    1W        W36185   1.728   9.355   9.097  0.0597  0.1469  0.0080
    1W        W36186   7.850   5.091   8.435  0.2427  0.0739  0.1558
    1W        W36187  20.340  28.419   7.624  0.0872  0.1685 -0.3935
    1W        W36188  19.025  24.266   7.081 -0.1284  0.2245 -0.0759
    1W        W36189  30.331  18.265   6.879 -0.5057 -0.1555  0.0011
    1W        W36190  11.388  16.242   7.380 -0.1789 -0.0391  0.3455
    1W        W36191  21.980  19.489   0.510 -0.0819  0.0619 -0.1968
    1W        W36192  10.617   4.529   0.595 -0.2166  0.2414  0.0753
    1W        W36193  26.614   0.504   8.971  0.4108  0.1366 -0.1106
    1W        W36194  11.170   7.664   2.801 -0.2204 -0.3192 -0.0436
    1W        W36195  22.555  23.519   9.196  0.2060 -0.1387  0.2335
    1W        W36196   7.426  17.769   6.329 -0.0032  0.0550  0.0747
    1W        W36197  18.234  16.550   0.094  0.0123 -0.0625 -0.0437
    1W        W36198  23.245  14.002   7.608  0.0427 -0.3397  0.0971
    1W        W36199  24.067  25.432   2.145  0.2946  0.0919  0.1031
    1W        W36200   9.121   4.738   8.859 -0.1164 -0.0132  0.0951
    1W        W36201  27.732  10.443   9.099  0.0236  0.0172 -0.0476
    1W        W36202  13.379  20.995   0.250 -0.0826  0.1715 -0.0569
    1W        W36203  26.292  22.762   2.013 -0.1640 -0.3254  0.0336
    1W        W36204  28.362  24.322   0.105 -0.0017 -0.0840  0.2590
    1W        W36205  22.502  14.193   8.664 -0.1949  0.1473 -0.0250
    1W        W36206  28.028  28.736   1.761 -0.3677  0.0023  0.1065
    1W        W36207   4.519   5.363   7.512 -0.0974  0.1701 -0.1874
    1W        W36208   0.320   3.473   8.528  0.2222  0.0676  0.0465
    1W        W36209   0.655  11.090   0.785  0.2726  0.0654  0.3087
    1W        W36210   1.261   8.464   7.534 -0.0970 -0.2370 -0.2004
    1W        W36211  24.519  12.349   8.355  0.1303 -0.1765  0.1060
    1W        W36212  11.812   0.503   1.316  0.2239 -0.2485 -0.2941
    1W        W36213  15.489   6.244   0.449 -0.0365  0.1420 -0.0578
    1W        W36214  18.643   8.082   0.982  0.1451 -0.1282 -0.1090
    1W        W36215  12.690   7.210   9.210  0.3051 -0.1233 -0.0117
    1W        W36216  14.919  25.953   7.902 -0.0042 -0.1078 -0.1457
    1W        W36217  18.443  24.863   0.588  0.3185 -0.0220 -0.1893
    1W        W36218   0.167   3.293   0.571  0.0902 -0.2425 -0.0433
    1W        W36219   2.328  12.869   7.226  0.1316 -0.0937 -0.2275
    1W        W36220   5.045  27.024   8.034  0.1111 -0.1275 -0.0587
    1W        W36221  11.916  23.874   6.248  0.3674  0.2025 -0.0786
    1W        W36222  19.847   9.290   1.403 -0.0120  0.1484 -0.0667
    1W        W36223  25.715   5.834   9.171  0.0171 -0.2335 -0.2124
    1W        W36224  29.159  21.189   9.111  0.0156  0.0612 -0.0755
    1W        W36225  18.590  13.237   1.345  0.1140 -0.0049 -0.0080
    1W        W36226  22.704  17.317   7.644  0.2954  0.0671 -0.0299
    1W        W36227  24.849  29.058   2.965 -0.2852 -0.1111  0.2062
    1W        W36228  19.311   3.517   1.591 -0.0397  0.0629 -0.0623
    1W        W36229   1.502  28.424   8.629 -0.2246  0.0769  0.2093
    1W        W36230   5.907  17.523   2.214 -0.1210 -0.2886  0.2009
    1W        W36231  27.695  14.004   0.198  0.2708 -0.0446 -0.2930
    1W        W36232  14.534  24.276   7.457 -0.1101  0.2410  0.0318
    1W        W36233  22.090  16.988   6.785  0.5341  0.0856  0.3162
    1W        W36234   8.167   6.372   2.537  0.1938 -0.0100 -0.2490
    1W        W36235  10.955  26.677   0.353  0.0527 -0.0498 -0.0487
    1W        W36236  22.307   3.400   9.057 -0.1222  0.0037 -0.0320
    1W        W36237   0.309   4.898   7.587 -0.1060  0.3335 -0.0034
    1W        W36238   4.240  15.391   8.094  0.1806  0.1479 -0.0893
    1W        W36239  10.689  12.360   1.276  0.2405  0.1597  0.0179
    1W        W36240  17.014  13.276   1.747  0.1697  0.0590 -0.0063
    1W        W36241  20.907  16.360   2.245  0.1514 -0.0196  0.1886
    1W        W36242   9.871  14.897   2.568 -0.0552 -0.2287  0.0253
    1W        W36243   2.845   6.118   7.088  0.0450  0.0405  0.0890
    1W        W36244  26.042   5.700   8.195  0.3915 -0.0644  0.2395
    1W        W36245  28.381  23.131   0.355 -0.0755 -0.1333 -0.0604
    1W        W36246  28.347   7.919   9.254 -0.0353  0.3837  0.3824
    1W        W36247  11.131  21.780   8.702 -0.2833 -0.0523 -0.0951
    1W        W36248  15.096  20.223   7.741  0.0680  0.1053 -0.0132
    1W        W36249   3.496  10.331   0.558 -0.0002  0.0245  0.1587
    1W        W36250   8.295  20.864   8.086 -0.2435  0.0224  0.0425
    1W        W36251  25.180  18.609   6.505  0.1328 -0.1122 -0.0712
    1W        W36252   9.023   4.332   9.130  0.1789  0.0717  0.3651
    1W        W36253   1.955  20.481   9.115  0.0368 -0.2437  0.0873
    1W        W36254  19.672  11.386   2.093 -0.3876 -0.1853  0.2948
    1W        W36255  17.407  26.847   7.422 -0.4681  0.1651 -0.0676
    1W        W36256   9.212  25.279   8.644 -0.0135  0.1908  0.0802
    1W        W36257  23.005   7.007   1.698 -0.1910  0.2502  0.2143
    1W        W36258  18.651  12.308   8.916 -0.0400 -0.0213  0.0281
    1W        W36259   0.899   3.080   8.342  0.2185  0.2113 -0.1013
    1W        W36260  25.535  25.808   7.533  0.1927 -0.2827  0.1411
    1W        W36261  27.310   1.248   1.939 -0.1445  0.1997  0.0590
    1W        W36262  17.038  15.384   7.469 -0.0386 -0.0965 -0.2249
    1W        W36263   7.866   5.232   8.963  0.0967 -0.3149 -0.3655
    1W        W36264  26.467   5.373   1.617  0.1433  0.4025  0.0965
    1W        W36265   3.961  11.752   0.555  0.2474 -0.3360  0.0509
    1W        W36266  22.818  29.491   2.541  0.2919  0.1362  0.1120
    1W        W36267   0.411   8.172   8.147  0.1739  0.0757  0.0023
    1W        W36268  25.187  10.518   1.687 -0.1479 -0.1523  0.3596
    1W        W36269   8.092  16.285   7.990 -0.1622  0.0344 -0.0113
    1W        W36270  29.276   0.975   0.214  0.2630 -0.3114 -0.0064
    1W        W36271  24.240   6.785   6.805  0.1093 -0.1567 -0.1040
    1W        W36272  26.791   7.505   7.629 -0.0121  0.2045 -0.1946
    1W        W36273  15.897  22.273   1.808 -0.0711 -0.4583  0.0291
    1W        W36274   3.390   3.078   6.575 -0.0347 -0.0475  0.3901
    1W        W36275   4.398  27.758   9.049 -0.0304 -0.1625  0.0255
    1W        W36276  17.547   7.116   8.238  0.0296  0.3114 -0.0768
    1W        W36277  18.186   6.339   1.833  0.0230  0.2576 -0.0995
    1W        W36278  14.831  24.299   1.775  0.2976  0.1538  0.1162
    1W        W36279   4.961  18.067   1.760 -0.0679 -0.1343 -0.0734
    1W        W36280   4.127  24.686   9.057 -0.0825 -0.0778  0.3051
    1W        W36281  27.809  25.455   2.124 -0.2149  0.2648 -0.1330
    1W        W36282  28.678  27.103   1.725  0.2771 -0.0538 -0.2113
    1W        W36283  24.144  18.176   9.129 -0.1639 -0.0378 -0.1595
    1W        W36284   7.379  16.872   6.025  0.0095  0.0651 -0.1171
    1W        W36285   8.945   8.698   0.442 -0.2891 -0.2256 -0.1246
    1W        W36286   7.802  20.134   7.719 -0.0472  0.0866  0.0833
    1W        W36287   8.458   7.578   2.019  0.3330 -0.0612  0.1548
    1W        W36288  22.620   6.522   6.819 -0.0078 -0.0146 -0.1018
    1W        W36289   0.495  17.034   7.803 -0.1874  0.0314  0.0391
    1W        W36290   6.245  28.605   1.452 -0.2158  0.0658  0.1209
    1W        W36291  27.180   3.123   8.827  0.1637  0.0051  0.0847
    1W        W36292  18.989   6.503   7.654 -0.0946 -0.0497 -0.0911
    1W        W36293   0.356  25.786   8.551  0.0569 -0.0663 -0.1807
    1W        W36294  19.933   7.265   1.300 -0.1466  0.0924 -0.0252
    1W        W36295  26.303   4.455   3.007 -0.3117 -0.0571 -0.0973
    1W        W36296   0.019  17.655   8.541 -0.1474  0.2301  0.0961
    1W        W36297  28.614  10.026   1.515  0.1273 -0.0747 -0.0020
    1W        W36298   4.919  17.343   7.620  0.1044 -0.1413 -0.2158
    1W        W36299  24.645  10.718   6.680 -0.0645 -0.1325  0.0437
    1W        W36300  18.969   9.461   6.368  0.1463 -0.1401  0.0463
    1W        W36301   0.018  20.458   7.906  0.2243  0.0463 -0.2287
    1W        W36302   6.010   0.027   3.557 -0.0300  0.3268 -0.2176
    1W        W36303   1.320  23.278   2.005  0.1223  0.0447  0.2839
    1W        W36304  14.931  20.216   6.562  0.0452  0.0857  0.0208
    1W        W36305  20.455   2.951   7.355  0.0946  0.3546  0.0950
    1W        W36306   4.256   5.084   7.970  0.0870  0.1567 -0.0228
    1W        W36307   2.423   4.436   9.186 -0.2841 -0.1447  0.3430
    1W        W36308  28.573  22.054   1.293 -0.0321 -0.1015  0.2624
    1W        W36309  11.839  22.524   5.996 -0.0066 -0.0808 -0.0306
    1W        W36310   3.146   3.289   1.134  0.3142 -0.1335  0.0792
    1W        W36311  21.687  23.943   1.519 -0.0114  0.0887  0.0505
    1W        W36312  25.483  18.235   7.769  0.1163 -0.0221 -0.3937
    1W        W36313   4.524  27.910   1.697  0.1287 -0.2806  0.1092
    1W        W36314  21.763  22.746   8.001  0.1678  0.0333 -0.0835
    1W        W36315  20.645   6.435   8.918  0.0963  0.0056  0.1015
    1W        W36316  12.565  10.858   2.770 -0.1545 -0.3217 -0.1044
    1W        W36317  23.861  10.747   0.282 -0.0317 -0.1503 -0.1638
    1W        W36318   7.732   5.399   3.234  0.0842  0.0647 -0.1569
    1W        W36319  17.819  12.203   8.348 -0.4357 -0.3453 -0.0023
    1W        W36320   2.968  13.500   2.074  0.1723  0.1374  0.0370
    1W        W36321  15.515  21.175   7.546 -0.1647 -0.1268 -0.1163
    1W        W36322   8.891  20.241   1.894  0.2627 -0.1405 -0.0275
    1W        W36323  28.052   2.878   8.591 -0.2877  0.1975 -0.2141
    1W        W36324  21.690  29.911   6.631 -0.0049 -0.1090 -0.0029
    1W        W36325  15.872  16.358   7.140  0.1289  0.0694  0.2136
    1W        W36326  14.784   8.793   8.755 -0.0161 -0.1612  0.1529
    1W        W36327   4.498  19.603   7.423  0.0993 -0.1689  0.0838
    1W        W36328  16.001  28.088   2.284  0.2132 -0.2343 -0.2294
    1W        W36329   1.307   8.704   6.917 -0.0090 -0.0649 -0.1064
    1W        W36330  27.899  18.249   6.571 -0.2677  0.0270  0.2263
    1W        W36331  15.458  20.694   0.698 -0.2299  0.1219 -0.0157
    1W        W36332  20.626  25.412   0.327  0.1763 -0.2860  0.1163
    1W        W36333   6.233  19.048   7.858 -0.2211  0.0340 -0.3917
    1W        W36334  20.590  14.937   1.733 -0.0782  0.0399  0.1229
    1W        W36335  29.703  14.213   1.561 -0.0129  0.0314  0.1124
    1W        W36336  22.391  27.635   7.357  0.0143  0.0523  0.1685
    1W        W36337  24.280  16.185   0.073  0.1795  0.2692 -0.2231
    1W        W36338  29.941  19.721   7.469 -0.1211 -0.2147 -0.0669
    1W        W36339   2.715  27.418   7.543  0.1236  0.0967 -0.1742
    1W        W36340   9.160  28.968   0.442  0.2316 -0.2640  0.0850
    1W        W36341   3.643  22.637   6.629 -0.0672 -0.3787  0.0900
    1W        W36342  12.238   7.698   7.113  0.1060  0.3580 -0.2011
    1W        W36343  23.849  12.818   6.700 -0.0817  0.1961 -0.0746
    1W        W36344   8.500  29.915   2.542 -0.2534  0.1735  0.0088
    1W        W36345  25.630   9.501   1.332  0.0069  0.0679 -0.0452
    1W        W36346  23.556  12.512   1.211 -0.0126 -0.1162  0.3729
    1W        W36347   2.248  15.002   1.807 -0.1000 -0.0339 -0.0670
    1W        W36348  21.100  12.513   0.919 -0.2120 -0.0214  0.0714
    1W        W36349  23.725  29.391   9.182 -0.1368  0.0282 -0.2146
    1W        W36350   9.676   9.077   7.327 -0.0400 -0.2262  0.2041
    1W        W36351   3.394   3.170   0.221  0.1285  0.0346  0.0876
    1W        W36352  25.717   9.209   0.916  0.0971 -0.0010 -0.1525
    1W        W36353  22.798  21.075   0.857  0.1227 -0.0771 -0.0679
    1W        W36354   8.814  18.723   1.738 -0.2174 -0.0475  0.3147
    1W        W36355  28.531   3.213   1.917 -0.4198 -0.1719 -0.2452
    1W        W36356   2.172   9.133   6.826 -0.1750 -0.0535  0.0102
    1W        W36357  26.166  19.713   0.703 -0.1916  0.1328  0.1582
    1W        W36358   4.780  20.567   0.005  0.2412  0.0854  0.1171
    1W        W36359   4.145  12.549   1.146  0.0831 -0.0037  0.0460
    1W        W36360  17.847   2.153   8.435  0.1354 -0.1710 -0.0940
    1W        W36361   5.365   8.782   1.221  0.0199  0.2873 -0.2067
    1W        W36362  14.412  15.385   7.065 -0.1414  0.1390  0.0091
    1W        W36363  11.743  28.551   2.077  0.1290  0.2729 -0.0958
    1W        W36364   2.662  19.073   8.385  0.0197  0.3691  0.1801
    1W        W36365  27.413  17.318   6.422 -0.0192  0.1153 -0.0900
    1W        W36366   5.842  11.448   1.232 -0.0272  0.0600  0.0011
    1W        W36367  11.610  30.293   7.483  0.0818 -0.3327  0.1065
    1W        W36368   4.948   3.716   8.582  0.0254  0.1229  0.0255
    1W        W36369   4.681  18.712   7.661 -0.3868 -0.2476  0.0594
    1W        W36370  26.795  18.578   8.849  0.2421 -0.0936 -0.0810
    1W        W36371   1.726  18.961   8.698 -0.0471  0.3477 -0.0017
    1W        W36372  14.909  26.929   2.393  0.0176 -0.1882  0.1676
    1W        W36373   7.750   8.443   8.734 -0.0303  0.0192  0.0710
    1W        W36374  21.351  11.821   8.959  0.0480 -0.3787 -0.0940
    1W        W36375   2.617   6.337   8.199 -0.0774 -0.0605  0.3134
    1W        W36376  29.127  20.789   8.798  0.0720  0.5188 -0.1728
    1W        W36377  29.090  22.032   0.240 -0.2274  0.2211  0.1384
    1W        W36378  23.164  25.634   0.128  0.0182 -0.0104  0.1704
    1W        W36379  19.215  12.836   1.042  0.2395  0.2405 -0.0507
    1W        W36380  10.185   7.882   1.292 -0.1987 -0.1832 -0.0313
    1W        W36381  13.224  23.326   7.710  0.0851  0.2005  0.1777
    1W        W36382  13.672  17.018   6.740  0.1820 -0.3307 -0.1070
    1W        W36383   9.340  18.854   0.924  0.2361  0.1065  0.3137
    1W        W36384  28.585   4.527   3.448  0.1698  0.1181 -0.0706
    1W        W36385  15.329  23.144   8.122  0.0747 -0.0867  0.0678
    1W        W36386  29.985   8.274   2.958  0.2174  0.2229  0.3590
    1W        W36387  11.171  10.868   6.412  0.1279  0.0623 -0.2259
    1W        W36388  29.980  26.030   1.910 -0.1264 -0.1285  0.1965
    1W        W36389  29.685   8.523   9.166  0.2965 -0.1001 -0.2836
    1W        W36390  10.507  14.687   1.824  0.1601 -0.2029  0.1059
    1W        W36391   2.905  11.884   2.043 -0.0382  0.1579 -0.1845
    1W        W36392  13.346  14.153   1.499  0.2958 -0.1643 -0.0587
    1W        W36393  10.501  30.291   8.710  0.0967 -0.1736  0.1325
    1W        W36394  13.270   2.326   0.628  0.0792  0.2472 -0.1218
    1W        W36395  13.339  22.355   0.861 -0.1504 -0.2489  0.0340
    1W        W36396   9.565  14.326   8.717 -0.0142  0.1270 -0.0521
    1W        W36397   6.519   6.469   8.770  0.1333  0.0988  0.3601
    1W        W36398  25.893  10.295   0.261  0.6395  0.0408  0.1934
    1W        W36399  14.455  15.007   6.345  0.0915 -0.2659 -0.3373
    1W        W36400   2.729   9.013   1.973 -0.0944 -0.1549  0.2050
    1W        W36401   8.567  28.909   2.937  0.0079 -0.3259 -0.2265
    1W        W36402  10.051  25.938   1.096  0.3462 -0.2689 -0.0551
    1W        W36403   5.805  10.677   0.669 -0.0845  0.0952 -0.0985
    1W        W36404   6.178  29.077   6.586  0.1607  0.2226 -0.2069
    1W        W36405   7.035  10.176   6.267  0.2368  0.0066  0.0376
    1W        W36406   4.380  28.472   8.197  0.2753 -0.0111  0.0823
    1W        W36407  22.806  11.411   7.227 -0.1658  0.0505  0.0668
    1W        W36408   4.547  11.191   6.804  0.1558  0.1097 -0.0203
    1W        W36409  13.007  15.049   1.137 -0.3016  0.2133 -0.1860
    1W        W36410  24.778  20.991   2.400 -0.1311 -0.1343 -0.1225
    1W        W36411  11.163  10.242   3.575  0.0345  0.0904  0.0557
    1W        W36412   3.027   7.385   1.166  0.1999 -0.2131 -0.1308
    1W        W36413  19.762  25.276   2.374  0.1877 -0.2914 -0.1652
    1W        W36414  30.297  28.473   8.935 -0.0919 -0.0761 -0.0117
    1W        W36415   2.547   0.337   6.937  0.1278  0.0900 -0.0562
    1W        W36416  30.159   5.050   7.345 -0.1852  0.2336 -0.2164
    1W        W36417  12.804  27.691   7.347 -0.0743 -0.2321  0.0308
    1W        W36418   4.561  23.521   1.546  0.0022 -0.2305 -0.0467
    1W        W36419  29.360  26.187   2.969  0.2232  0.2263  0.1792
    1W        W36420  17.171   7.834   0.335 -0.4908  0.2045 -0.0580
    1W        W36421   2.275   5.983   5.891  0.0611  0.0584 -0.0372
    1W        W36422  21.873  25.794   0.037 -0.2096 -0.0715  0.2616
    1W        W36423  24.326  13.578   7.218 -0.1281 -0.1729 -0.0034
    1W        W36424   3.738  13.922   6.817 -0.0872 -0.0262 -0.1818
    1W        W36425  12.698  21.313   7.518 -0.1250 -0.2645  0.0232
    1W        W36426  29.743  12.057   8.595  0.3384  0.1493  0.4193
    1W        W36427   1.869   1.651   9.121 -0.1332 -0.0134 -0.0280
    1W        W36428  24.746  16.553   5.876 -0.1541  0.1774 -0.0217
    1W        W36429   2.667  27.162   0.693  0.2490  0.0434  0.0034
    1W        W36430   9.657  27.132   0.379 -0.2151  0.0491  0.2324
    1W        W36431  26.316  17.958   7.668  0.3329 -0.1177  0.1440
    1W        W36432   6.188  27.530   0.610 -0.1701 -0.0620 -0.0367
    1W        W36433  17.492  28.980   0.391  0.0773 -0.3038  0.1479
    1W        W36434   2.990  28.952   3.076 -0.1042 -0.1604  0.1347
    1W        W36435   4.252  17.995   8.077  0.0924 -0.1028 -0.2565
    1W        W36436  28.971   9.866   8.348  0.1346 -0.0800 -0.1548
    1W        W36437  19.794  13.614   7.585 -0.0525  0.0247  0.0773
    1W        W36438  22.631  16.519   0.592  0.0962  0.0759 -0.1319
    1W        W36439  13.360  25.859   8.074  0.1714  0.1421  0.1741
    1W        W36440   5.540  14.444   6.525  0.0521  0.0924 -0.1057
    1W        W36441   9.341   0.390   0.770 -0.2945  0.0080 -0.2382
    1W        W36442  21.142  27.822   1.199  0.0811 -0.1501 -0.0908
    1W        W36443   6.543  13.337   0.945 -0.0571  0.2311  0.0968
    1W        W36444  13.925  23.566   6.001 -0.1089 -0.2990  0.3141
    1W        W36445   6.379  10.308   2.827 -0.1963 -0.0082 -0.2774
    1W        W36446  20.049   9.689   6.161  0.1016  0.3002  0.4264
    1W        W36447  21.526  10.285   7.144  0.0491 -0.2038  0.0523
    1W        W36448  27.775  10.106   0.851  0.0872  0.2103  0.0520
    1W        W36449   5.342  17.721   1.500 -0.1186 -0.0713  0.1570
    1W        W36450  24.477  21.070   8.403 -0.3424 -0.2042  0.0547
    1W        W36451   5.589   2.820   1.370 -0.0667 -0.0754  0.1039
    1W        W36452   6.837   4.026   7.351  0.3967  0.1776  0.2173
    1W        W36453   9.995  24.102   6.853 -0.4083  0.1338 -0.2517
    1W        W36454   6.117  16.029   8.195  0.1429 -0.0322  0.1178
    1W        W36455   6.818   0.015   2.498  0.2650 -0.3280 -0.1178
    1W        W36456   4.649   8.724   8.784 -0.1147  0.2753  0.1362
    1W        W36457  14.691   4.757   7.682  0.0299  0.0057  0.1942
    1W        W36458  21.421  26.495   0.739 -0.3723  0.0429  0.1515
    1W        W36459   2.656  14.137   0.420 -0.2533  0.0646 -0.0870
    1W        W36460  11.294   3.218   2.692 -0.1604  0.2758  0.2804
    1W        W36461  29.779  10.609   2.082 -0.2922 -0.3263  0.1536
    1W        W36462  12.697   4.024   8.346  0.1426  0.2194  0.0194
    1W        W36463   9.459  11.476   8.904  0.0093 -0.0530 -0.0512
    1W        W36464  16.337   4.287   0.135 -0.4728  0.0102  0.0431
    1W        W36465   9.066  12.905   2.477 -0.0418 -0.1612 -0.0803
    1W        W36466   4.063   8.916   2.368 -0.0646 -0.3409  0.2432
    1W        W36467   6.084  23.109   7.196 -0.2526 -0.1112  0.0029
    1W        W36468   5.759   4.093   1.705 -0.2016  0.1819  0.1151
    1W        W36469   2.354  29.359   2.610  0.0730  0.1056 -0.3659
    1W        W36470  25.894  18.487   0.958 -0.1285 -0.2466 -0.0662
    1W        W36471  15.020   2.028   1.321 -0.1921 -0.1800  0.0830
    1W        W36472  17.045  21.301   7.703  0.0512 -0.1466  0.0492
    1W        W36473   7.257  24.342   0.036  0.0095 -0.0829 -0.2151
    1W        W36474   2.019   9.473   8.621  0.2224  0.0507  0.3418
    1W        W36475   3.494  11.569   0.852 -0.0075 -0.2853  0.1162
    1W        W36476   9.676   8.368   9.142  0.2566 -0.2754 -0.1751
    1W        W36477  22.723  12.562   1.691  0.0235 -0.0823 -0.0166
    1W        W36478   1.755   6.151   7.425  0.1133 -0.0655  0.1345
    1W        W36479  27.796  18.559   9.212 -0.2226 -0.2034 -0.1459
    1W        W36480  27.379  10.811   1.789  0.0123 -0.2379 -0.1170
    1W        W36481   5.458  20.869   7.115  0.3017  0.0454 -0.1636
    1W        W36482   2.505  27.248   8.649  0.1419 -0.0136  0.4055
    1W        W36483   0.966  12.785   0.831 -0.0371 -0.2711 -0.2334
    1W        W36484   1.022  28.087   2.873  0.0804 -0.1860 -0.1357
    1W        W36485  15.715   4.166   6.907 -0.3117  0.1154  0.0437
    1W        W36486  15.092   0.322   3.015 -0.3388 -0.1479 -0.0430
    1W        W36487   8.242  26.718   6.870  0.2976 -0.0457 -0.3713
    1W        W36488  14.422  15.922   1.217 -0.0306 -0.0119 -0.0925
    1W        W36489  29.391  25.977   1.946 -0.1353  0.2216  0.3326
    1W        W36490  16.675   5.492   9.202 -0.3101  0.0654  0.1786
    1W        W36491   8.504   6.184   1.364  0.0650 -0.3548  0.1160
    1W        W36492  15.167  19.128   7.490  0.0827 -0.0576 -0.2825
    1W        W36493  30.222   6.941   8.542  0.0669  0.0711 -0.1471
    1W        W36494  14.648  22.957   0.742  0.1093  0.2517 -0.0905
    1W        W36495  10.761   7.710   7.544  0.0578  0.1558  0.1091
    1W        W36496   5.312  13.095   7.777 -0.3185 -0.0026  0.0860
    1W        W36497  24.250   0.093   7.378  0.0082 -0.3184 -0.0953
    1W        W36498  14.598   0.892   0.376 -0.1835  0.0076 -0.0437
    1W        W36499  13.594   2.377   1.748 -0.1931 -0.1059 -0.1032
    1W        W36500   6.842   6.020   2.457 -0.0328  0.1729  0.0666
    1W        W36501  10.860  28.686   7.691 -0.0858 -0.0624  0.2405
    1W        W36502   7.353  21.860   5.943 -0.0401 -0.3793  0.0693
    1W        W36503  23.675   4.759   7.602 -0.3517  0.0906  0.0444
    1W        W36504   9.833  23.122   2.312 -0.1005 -0.2812  0.1399
    1W        W36505  17.295  27.302   7.789 -0.0480 -0.1751  0.1796
    1W        W36506   6.889  12.923   1.897  0.2205 -0.2424 -0.0537
    1W        W36507  20.959   2.930   1.636  0.0356  0.1767  0.3944
    1W        W36508  18.373  26.957   7.254 -0.1097 -0.1993  0.1062
    1W        W36509   7.008  27.381   8.244  0.0076 -0.3149  0.1539
    1W        W36510   5.910  16.993   0.467  0.0579  0.3144 -0.0019
    1W        W36511   6.146   2.459   2.719  0.2168  0.2553 -0.0183
    1W        W36512  25.566   1.760   7.914 -0.0063 -0.2213 -0.0962
    1W        W36513  22.675   3.317   7.900  0.1018 -0.2630 -0.3073
    1W        W36514  11.341   9.365   7.895  0.2373 -0.0781  0.3793
    1W        W36515   9.911  17.661   5.758 -0.3016  0.2639 -0.2848
    1W        W36516  24.019  10.170   0.320  0.0917  0.2008 -0.0816
    1W        W36517  10.162  11.474   0.891 -0.1883 -0.1605  0.1065
    1W        W36518  22.727  17.779   8.322 -0.0997 -0.0679 -0.2479
    1W        W36519  12.793  13.184   0.560 -0.2746 -0.0538 -0.1439
    1W        W36520   1.460  10.937   8.442  0.1946 -0.0516  0.1220
    1W        W36521  24.386   7.835   0.761 -0.0765 -0.0325 -0.3995
    1W        W36522  16.381  22.884   7.505 -0.0210  0.1363 -0.0022
    1W        W36523   4.586  21.459   6.671 -0.0515  0.1948 -0.1186
    1W        W36524  27.510  12.490   8.469  0.0750 -0.1840  0.0246
    1W        W36525  20.306  13.490   6.113 -0.1017  0.1748 -0.1268
    1W        W36526  18.268  13.863   2.055  0.2654  0.1384 -0.0990
    1W        W36527  11.020  20.034   6.748 -0.1279 -0.1428 -0.1620
    1W        W36528   7.168  21.890   8.592 -0.2702  0.0563  0.2220
    1W        W36529  11.524   1.542   1.373  0.1326  0.0418  0.3173
    1W        W36530  14.074   6.478   1.971 -0.3257  0.1232 -0.3280
    1W        W36531  18.201   7.136   2.369 -0.1296 -0.0509  0.0221
    1W        W36532  19.639  22.650   6.723  0.2432 -0.2805  0.0758
    1W        W36533  17.531   5.541   7.698  0.1966 -0.2341 -0.0552
    1W        W36534  13.260  12.792   7.796 -0.0548 -0.1288 -0.1214
    1W        W36535  12.254  20.880   8.707 -0.0697 -0.0542 -0.2298
    1W        W36536  19.259  29.887   1.534  0.3705 -0.2107 -0.2188
    1W        W36537  21.559  25.670   8.238 -0.1604 -0.0655  0.3229
    1W        W36538   0.463   1.139   2.150 -0.3068 -0.2813 -0.2364
    1W        W36539  11.993  19.633   0.405 -0.1660  0.0374  0.3196
    1W        W36540  12.955   1.399   0.069  0.2734 -0.1610 -0.0042
    1W        W36541   8.849   8.076   1.580  0.0576 -0.0929 -0.1096
    1W        W36542  28.023  27.797   8.671 -0.0566 -0.1468 -0.1874
    1W        W36543   4.244  21.759   6.919  0.1107 -0.0548 -0.1688
    1W        W36544  21.276  29.557   6.696  0.0469 -0.0747 -0.1668
    1W        W36545  11.966  18.353   7.382  0.0644 -0.1294 -0.1608
    1W        W36546  21.582  29.833   7.502  0.1409 -0.0723 -0.0085
    1W        W36547  18.632  19.454   0.562 -0.3069  0.0401 -0.3032
    1W        W36548  29.222   9.047   0.249 -0.1376  0.0083 -0.2181
    1W        W36549  12.778  28.214   9.142 -0.1457 -0.0850 -0.1956
    1W        W36550  22.873   2.461   2.266 -0.1958 -0.1480 -0.1714
    1W        W36551  27.970  11.568   1.869  0.0625  0.0489  0.0288
    1W        W36552   8.020  19.865   1.410 -0.1033 -0.0370  0.2220
    1W        W36553  14.381   8.297   0.625 -0.1975  0.0024  0.2011
    1W        W36554  19.227  14.144   7.988 -0.0002  0.0545 -0.1252
    1W        W36555  17.853   3.268   6.182  0.1144  0.0859  0.1182
    1W        W36556  28.043   1.672   2.550 -0.0739 -0.2919 -0.3598
    1W        W36557   7.910  25.775   1.345 -0.1776  0.0253  0.4766
    1W        W36558   3.166   7.832   1.473  0.0524 -0.2349 -0.1960
    1W        W36559  28.978   9.602   3.236  0.1584  0.0800  0.1404
    1W        W36560  27.938  13.175   7.023  0.0788 -0.2681 -0.0152
    1W        W36561  11.710  27.662   8.586  0.0840 -0.0248 -0.2866
    1W        W36562   8.819   3.798   7.399 -0.1945  0.0170  0.2111
    1W        W36563  23.779   5.471   9.129 -0.1114 -0.1818  0.0148
    1W        W36564   5.141  12.625   2.490  0.2285 -0.0451 -0.0293
    1W        W36565  15.175  22.479   1.397  0.0794  0.0215  0.1990
    1W        W36566  26.795   6.882   1.576 -0.2698  0.0460  0.1815
    1W        W36567  21.089  10.385   6.942 -0.0946  0.0559 -0.0735
    1W        W36568  25.215  22.336   8.180 -0.0265 -0.0986  0.3476
    1W        W36569   1.135  11.978   8.500 -0.0241 -0.0082 -0.1599
    1W        W36570  24.868  27.350   7.317  0.1134 -0.1444  0.4238
    1W        W36571   8.271   0.878   8.719 -0.0917 -0.0242 -0.1515
    1W        W36572  23.763  22.644   8.887 -0.1768  0.2070  0.0762
    1W        W36573  27.918  12.284   0.706 -0.2021 -0.0641 -0.0028
    1W        W36574  11.048   1.242   6.149  0.0203 -0.3243 -0.0343
    1W        W36575  23.725   4.292   2.893 -0.0526 -0.2171  0.1395
    1W        W36576  17.588   9.791   0.381 -0.1500  0.1765 -0.0472
    1W        W36577   3.497  24.743   2.249  0.1934 -0.1047 -0.0739
    1W        W36578  22.138   0.687   7.019  0.0061  0.1547 -0.1531
    1W        W36579  13.902  28.792   2.571  0.0721  0.1022 -0.0289
    1W        W36580  14.690  27.120   1.718  0.3536 -0.0161 -0.0032
    1W        W36581  13.056   1.107   2.964 -0.0592  0.2838 -0.1895
    1W        W36582   9.560   0.507   8.022 -0.0575  0.2077  0.0628
    1W        W36583   7.329  11.412   2.967 -0.0433 -0.1304  0.1723
    1W        W36584  18.831  24.788   7.202  0.2920  0.0659 -0.3757
    1W        W36585  30.179  11.573   6.881  0.0321  0.3627 -0.4204
    1W        W36586  13.276  12.874   3.267 -0.1943 -0.0293 -0.2551
    1W        W36587  30.064  23.955   2.139  0.2215  0.1957  0.0689
    1W        W36588   9.648  26.485   2.134  0.0188 -0.1253 -0.0215
    1W        W36589  19.291  10.117   7.476 -0.0349 -0.0202 -0.3269
    1W        W36590  13.085  17.284   0.436 -0.1078 -0.0665 -0.1503
    1W        W36591  19.235  26.217   8.111  0.1655 -0.1931 -0.0638
    1W        W36592  28.945   5.148   2.532 -0.0962  0.0922  0.3849
    1W        W36593  27.713  27.310   1.573 -0.3410 -0.3101 -0.0665
    1W        W36594   9.849   4.749   8.416 -0.1526 -0.0071 -0.1718
    1W        W36595  23.647  18.442   8.672 -0.0090  0.0501 -0.3415
    1W        W36596   7.194  19.071   6.097  0.2352  0.0358 -0.2388
    1W        W36597   6.503   2.708   7.590  0.0875  0.1152  0.0074
    1W        W36598  15.033  30.260   9.042 -0.0365 -0.0178  0.2018
    1W        W36599  20.601   5.137   1.724 -0.0413 -0.0053 -0.0307
    1W        W36600  19.737  20.871   1.209 -0.1685  0.1397 -0.1930
    1W        W36601  17.036  19.293   6.915  0.0154 -0.1615 -0.4180
    1W        W36602  14.193   6.079   9.079 -0.1667  0.0309 -0.3516
    1W        W36603  20.101  22.882   8.843  0.0834 -0.1085 -0.0899
    1W        W36604   3.669  13.816   7.289 -0.0159 -0.0087  0.3597
    1W        W36605   9.027  25.413   1.950 -0.0244 -0.0218  0.1501
    1W        W36606  18.902  27.857   7.958  0.2595  0.0711  0.1370
    1W        W36607  21.501   5.456   8.770 -0.1307  0.2236  0.2456
    1W        W36608  25.363  10.560   0.345 -0.1701  0.0644 -0.0104
    1W        W36609  12.227   5.998   0.002 -0.1737  0.1937 -0.1051
    1W        W36610   0.875  22.137   8.470  0.1688  0.2562 -0.1966
    1W        W36611  25.976  15.104   7.531  0.0083  0.1279 -0.0962
    1W        W36612  22.965  22.954   0.967  0.2678  0.0973  0.1391
    1W        W36613   3.865  10.500   1.625 -0.0823 -0.0397 -0.0667
    1W        W36614  18.967  12.730   7.052  0.1736  0.0522 -0.2902
    1W        W36615  27.469  22.257   7.028 -0.0250  0.0386 -0.0381
    1W        W36616  17.584  20.726   2.932  0.1200 -0.1614 -0.0167
    1W        W36617  15.632  28.960   7.324  0.5075  0.2989  0.0011
    1W        W36618   8.378  19.095   8.702 -0.0015  0.1039  0.2311
    1W        W36619   4.907  22.104   0.889 -0.0016  0.0059 -0.1833
    1W        W36620  15.412   2.823   8.082 -0.1823 -0.0963 -0.4533
    1W        W36621  15.146  15.591   8.021 -0.0956  0.0680  0.0167
    1W        W36622  27.787   7.278   1.598  0.1463  0.2317 -0.1334
    1W        W36623  15.729  30.232   0.631 -0.1668 -0.2269 -0.3972
    1W        W36624  21.216   7.721   1.801  0.3923 -0.0539  0.0270
    1W        W36625  12.265  11.960   8.054 -0.0530  0.0687  0.0160
    1W        W36626   7.540  15.164   7.279 -0.0065 -0.2249  0.1894
    1W        W36627   7.227   6.240   1.001  0.1671 -0.4593 -0.2238
    1W        W36628  24.592  18.993   1.575  0.0117  0.1148  0.1086
    1W        W36629  12.254   6.317   6.473  0.3659 -0.0763  0.1492
    1W        W36630  16.326   7.689   1.536 -0.1293 -0.2416 -0.1659
    1W        W36631  17.968  10.083   7.459 -0.0626 -0.1840 -0.0577
    1W        W36632  21.917  14.993   7.856 -0.0937  0.0807  0.0302
    1W        W36633  19.009   4.598   1.293  0.0512 -0.0524  0.3455
    1W        W36634   9.283  15.303   1.711  0.0777 -0.0129 -0.0086
    1W        W36635  13.772  20.958   1.938  0.2312 -0.1210  0.0489
    1W        W36636  26.572  29.167   2.346 -0.1252 -0.1542 -0.1509
    1W        W36637  11.287  28.574   7.984 -0.1149  0.1488  0.0697
    1W        W36638  23.640  19.775   7.200  0.2356 -0.4546 -0.0836
    1W        W36639  14.939  22.580   9.077 -0.5239  0.0046 -0.0949
    1W        W36640   9.197  27.663   1.666 -0.2194 -0.1400  0.1422
    1W        W36641   1.101  26.328   3.759  0.0116 -0.0305 -0.0949
    1W        W36642  19.973   0.007   1.103  0.4045  0.0824 -0.2552
    1W        W36643   1.577   3.004   8.529  0.3517  0.1382  0.2144
    1W        W36644  11.991   7.731   8.822 -0.2983  0.2228  0.1527
    1W        W36645  11.394  26.671   2.715  0.2392  0.1017 -0.1212
    1W        W36646   5.405  10.156   6.332  0.3509  0.0808  0.0764
    1W        W36647  19.009  21.116   6.258  0.1116  0.1251 -0.0160
    1W        W36648  25.969  26.303   1.812  0.0122 -0.1367  0.0102
    1W        W36649   8.207  27.159   7.500  0.2159 -0.1463 -0.2182
    1W        W36650  17.807  18.682   1.972  0.2753  0.1035 -0.2159
    1W        W36651   9.423   3.993   8.654  0.1945  0.2198 -0.2003
    1W        W36652  10.229  18.845   5.711  0.1616 -0.2620 -0.1115
    1W        W36653   8.070   5.947   8.108 -0.0072  0.1903 -0.2218
    1W        W36654  11.145  14.211   2.813  0.2985  0.1748  0.0230
    1W        W36655   7.990  22.453   0.481 -0.4208  0.1846 -0.0221
    1W        W36656   8.665   0.063   1.883  0.0491  0.1189  0.0089
    1W        W36657  14.366  12.051   7.768  0.0577  0.1959  0.0443
    1W        W36658   5.731  16.276   8.306  0.0322  0.0956 -0.0713
    1W        W36659  29.414   5.887   7.530  0.2031  0.0635 -0.0426
    1W        W36660  11.104   3.061   8.103 -0.0450  0.1892  0.0818
    1W        W36661  12.340  24.071   1.844 -0.0605  0.1222  0.0155
    1W        W36662   4.998   7.260   9.046  0.2702  0.4898 -0.0652
    1W        W36663  10.374  27.405   8.408 -0.1269  0.3348 -0.2031
    1W        W36664  24.490  11.452   8.506  0.1810  0.1549 -0.2314
    1W        W36665   6.221   9.997   7.289 -0.0357 -0.4083  0.1741
    1W        W36666   0.346  17.200   6.906  0.1104 -0.3541 -0.0345
    1W        W36667   7.576  22.881   1.756  0.0884 -0.2574 -0.1031
    1W        W36668  19.903   7.961   8.601 -0.0921 -0.0387 -0.1086
    1W        W36669  19.239   9.400   5.865 -0.1740  0.4696  0.1327
    1W        W36670  23.180   9.885   8.900  0.0224  0.1778  0.2802
    1W        W36671  19.250  16.146   6.264  0.3509 -0.2847 -0.0142
    1W        W36672  22.928  28.462   6.998  0.2433  0.1369  0.2358
    1W        W36673  23.401  24.581   2.352 -0.0323  0.2587  0.0061
    1W        W36674  15.629   0.261   0.959 -0.0204  0.1429  0.1906
    1W        W36675  14.191  27.646   9.122  0.0497  0.1277  0.3005
    1W        W36676   6.620   3.868   6.884 -0.1281 -0.1154 -0.1305
    1W        W36677   8.055  30.148   1.585  0.2677  0.0633  0.3820
    1W        W36678  23.250  23.856   0.091  0.3494  0.1602 -0.4134
    1W        W36679   9.137  23.886   9.141 -0.0846 -0.0332  0.1084
    1W        W36680  13.564  27.359   6.656  0.1118  0.0583 -0.1420
    1W        W36681   3.397  15.429   7.426 -0.1869 -0.3111  0.1348
    1W        W36682  28.495  14.602   1.297  0.1458 -0.0155  0.1603
    1W        W36683  25.838  13.332   8.377  0.2151 -0.0116 -0.0298
    1W        W36684  14.049  25.026   2.320  0.0412  0.1808 -0.1545
    1W        W36685  10.713  13.943   2.471  0.0403 -0.2476  0.0049
    1W        W36686  30.326  12.065   6.924  0.3853  0.0011 -0.1280
    1W        W36687   3.068  20.149   0.725 -0.1887  0.0582 -0.2247
    1W        W36688  11.517  24.025   8.322 -0.1269  0.2517 -0.0333
    1W        W36689  26.683   5.822   6.885  0.1010  0.0813  0.3562
    1W        W36690  18.494  22.263   1.167 -0.1537  0.0077 -0.3086
    1W        W36691  19.586  10.999   8.879  0.0216 -0.3126 -0.0694
    1W        W36692  25.361  28.946   1.939  0.0986  0.1244 -0.0513
    1W        W36693   7.998  17.586   6.248  0.1295 -0.0388  0.0348
    1W        W36694   6.232  11.738   7.141  0.0329 -0.1298  0.1868
    1W        W36695  14.777  11.172   6.708 -0.1030  0.0274 -0.0952
    1W        W36696  17.307  18.569   6.138 -0.0401 -0.2606 -0.1857
    1W        W36697  15.586  26.740   7.660 -0.0332  0.0212  0.2508
    1W        W36698   4.076  27.944   1.883 -0.0349  0.3041  0.0824
    1W        W36699  14.716   8.913   8.242 -0.2449  0.2105  0.0132
    1W        W36700  23.690  24.022   2.278  0.0705 -0.0440 -0.2126
    1W        W36701  13.743  16.112   3.516  0.0911 -0.0771  0.0825
    1W        W36702  13.649  27.646   9.030  0.3405  0.1757  0.1072
    1W        W36703   8.227  18.790   5.882  0.2297  0.0688 -0.1518
    1W        W36704  16.303   0.030   6.759  0.0105 -0.1238 -0.1372
    1W        W36705  18.142   4.278   9.054 -0.1504 -0.0632  0.2031
    1W        W36706  26.149  15.553   1.451  0.0496 -0.1915 -0.1085
    1W        W36707  17.658  11.626   8.780 -0.0840  0.2095  0.1508
    1W        W36708   0.885  25.806   8.415  0.0052 -0.0278  0.0047
    1W        W36709  26.355  17.689   7.201  0.4876 -0.2375  0.0968
    1W        W36710  12.280  24.918   1.214 -0.0630 -0.0595 -0.0929
    1W        W36711  24.306  22.561   8.888  0.0048 -0.3299 -0.2789
    1W        W36712   2.041  10.906   6.709 -0.0530 -0.0417  0.0237
    1W        W36713  25.899  26.659   7.124 -0.1190  0.1001 -0.3414
    1W        W36714  13.015  26.434   0.875  0.2752  0.2067 -0.4713
    1W        W36715  21.323  27.163   6.409  0.1862  0.2284  0.0987
    1W        W36716  15.131   3.522   1.420 -0.0340 -0.0958  0.2043
    1W        W36717  24.834  30.010   9.162 -0.0783 -0.1910  0.0777
    1W        W36718  26.783   9.352   0.689  0.1083 -0.3271 -0.1372
    1W        W36719  20.727  17.720   1.673 -0.0818 -0.0984  0.3349
    1W        W36720   1.875  21.816   0.885  0.0463 -0.2463  0.0007
    1W        W36721  19.672  25.445   1.867 -0.2724  0.1775  0.0310
    1W        W36722  22.275  28.842   7.430 -0.0003  0.1770 -0.1340
    1W        W36723  10.091   1.658   8.875 -0.1661  0.0125 -0.1567
    1W        W36724  28.004  10.536   7.358  0.0570  0.0574 -0.4277
    1W        W36725  13.316  19.667   6.663  0.2295 -0.0313 -0.0337
    1W        W36726  18.610   2.882   3.109 -0.0899  0.2458  0.1881
    1W        W36727  15.772   9.922   1.787  0.1428 -0.3319 -0.2412
    1W        W36728  23.078  12.764   1.262 -0.0703  0.1147  0.3272
    1W        W36729  15.602   7.517   0.351  0.1064  0.1480 -0.2328
    1W        W36730   2.460   0.550   3.204 -0.1283 -0.0604 -0.0136
    1W        W36731   4.640   8.238   1.911 -0.3109  0.0528  0.1339
    1W        W36732  23.792   3.300   7.333 -0.3536  0.2242 -0.2166
    1W        W36733   4.153  10.737   0.107  0.0678 -0.2560 -0.2856
    1W        W36734  21.131   1.439   1.090  0.2198 -0.3277  0.3474
    1W        W36735  22.736  16.383   7.671 -0.0250 -0.0184  0.0513
    1W        W36736  16.751   8.066   8.033 -0.3864  0.1379  0.0326
    1W        W36737   8.134   8.366   2.562 -0.0308 -0.3186  0.1104
    1W        W36738  25.735  27.682   2.362 -0.1038  0.1412  0.1492
    1W        W36739   5.918   9.523   1.101  0.0636  0.2383 -0.2194
    1W        W36740  21.187  12.023   7.721  0.0806 -0.0286  0.3450
    1W        W36741  27.424  13.405   8.885 -0.0529  0.0938  0.1166
    1W        W36742   2.682   0.950   8.435 -0.0689 -0.0773  0.5168
    1W        W36743  15.541  17.065   8.545 -0.1728 -0.0851 -0.0876
    1W        W36744  11.991  18.763   8.435 -0.2331  0.2842 -0.1571
    1W        W36745   4.181  29.313   8.889  0.2623 -0.0493  0.1022
    1W        W36746  19.960  10.788   0.520 -0.0014  0.0550 -0.2659
    1W        W36747  29.397   8.032   8.971 -0.2052  0.0873 -0.0568
    1W        W36748  12.959  17.217   7.973  0.0743  0.1088 -0.3392
    1W        W36749  28.800   2.094   8.581  0.0302 -0.1303  0.0942
    1W        W36750  28.021   0.781   2.694  0.0051 -0.0209 -0.2719
    1W        W36751  25.134   5.175   2.586  0.0177  0.0574 -0.0715
    1W        W36752  24.418   5.345   0.652  0.1106 -0.0562  0.1171
    1W        W36753  11.472  21.194   0.888 -0.3060 -0.0660  0.0196
    1W        W36754  24.988   3.864   7.603  0.3454 -0.0892 -0.0867
    1W        W36755  28.107  30.293   7.631 -0.3057 -0.1585 -0.0880
    1W        W36756  20.112  23.265   0.440 -0.0179 -0.2398 -0.1189
    1W        W36757   4.475  21.336   0.441  0.0524 -0.1393  0.1404
    1W        W36758  25.205  15.606   6.726  0.0746 -0.0180 -0.1905
    1W        W36759  17.117   3.104   6.807 -0.1014 -0.3436  0.0434
    1W        W36760  28.084  17.789   1.819  0.2720  0.2744 -0.1271
    1W        W36761  21.318  24.943   0.992  0.1229  0.0507  0.0320
    1W        W36762  10.939  21.805   8.192 -0.3845 -0.1324 -0.0974
    1W        W36763   9.082  28.153   7.125  0.0611 -0.1782 -0.0549
    1W        W36764  22.944  23.066   6.721  0.0158  0.1852  0.0149
    1W        W36765  25.883   2.319   8.245 -0.5321 -0.2346  0.4461
    1W        W36766  20.205  26.566   1.221 -0.1488  0.2375  0.1402
    1W        W36767  17.891  25.977   3.310 -0.1208 -0.2667  0.0864
    1W        W36768  16.202  18.856   0.005  0.0183 -0.2569  0.1269
    1W        W36769   6.620  17.839   0.285 -0.1558  0.0410 -0.1823
    1W        W36770  28.468  15.769   7.071  0.5062 -0.0702  0.0285
    1W        W36771  19.002  23.489   8.998 -0.1209 -0.4781  0.0189
    1W        W36772  28.468   4.814   1.800  0.0499  0.0938 -0.1834
    1W        W36773  22.842   5.627   1.303  0.4261 -0.1179 -0.1090
    1W        W36774  15.914   7.678   7.441 -0.3062  0.0632  0.2584
    1W        W36775  16.395  18.335   8.576  0.1789 -0.2958  0.3545
    1W        W36776   6.566  23.273   0.740 -0.0178 -0.0608  0.2387
    1W        W36777   9.376  23.854   7.423  0.0751 -0.0068  0.0408
    1W        W36778  10.959  18.155   7.357  0.1947  0.0503  0.0354
    1W        W36779  23.466  26.648   0.726 -0.2235  0.1355 -0.0803
    1W        W36780  19.131  13.643   6.543  0.0901  0.0935  0.0100
    1W        W36781  29.570  19.180   8.083 -0.1928  0.2675 -0.2020
    1W        W36782   6.499  20.838   6.042 -0.0880 -0.0471  0.1837
    1W        W36783  15.416  17.807   7.304  0.0894  0.2680 -0.1118
    1W        W36784  17.068  20.542   0.909 -0.0899 -0.2622  0.0321
    1W        W36785   9.733  12.325   2.093  0.1518  0.1841  0.0551
    1W        W36786  28.713  14.904   8.127  0.0583 -0.0330 -0.3760
    1W        W36787  29.610  30.179   1.789 -0.1003  0.1733 -0.0052
    1W        W36788  18.862   3.655   1.407 -0.0544  0.0581 -0.0962
    1W        W36789   9.764   2.430   7.856  0.0119  0.1657  0.1492
    1W        W36790   7.694   5.222   2.355  0.2264 -0.0157  0.2493
    1W        W36791  20.726  26.415   7.057 -0.2056  0.1942  0.0369
    1W        W36792  19.094  22.989   6.663 -0.0603  0.3671 -0.1154
    1W        W36793  11.044  13.864   2.093  0.0531 -0.2720  0.0262
    1W        W36794  20.543  17.662   8.392  0.2939  0.3633 -0.1549
    1W        W36795  24.874  20.294   8.529  0.0860  0.0104  0.1180
    1W        W36796  24.089   7.887   9.245 -0.0327 -0.0505 -0.0238
    1W        W36797  18.074  24.384   7.697  0.0275 -0.0173 -0.0815
    1W        W36798  19.954   5.534   7.140 -0.0851 -0.0715 -0.3282
    1W        W36799  14.322  13.599   2.786 -0.0379 -0.1468  0.1656
    1W        W36800   9.357   7.553   0.190 -0.0516 -0.1210 -0.0502
    1W        W36801  22.446  13.250   6.442  0.0138 -0.2151  0.0450
    1W        W36802  16.301  22.577   1.612 -0.1343  0.0592 -0.0629
    1W        W36803   4.550   1.342   7.241  0.1613 -0.1884 -0.1601
    1W        W36804  10.810   4.692   7.138 -0.3136 -0.2674  0.2848
    1W        W36805   9.891  28.591   7.851  0.0020  0.0985  0.0102
    1W        W36806  13.298  16.416   8.498 -0.1962 -0.0739  0.0141
    1W        W36807  16.167  28.303   1.798 -0.0658 -0.0814  0.2071
    1W        W36808  24.483  14.657   2.014 -0.0795  0.1984 -0.1836
    1W        W36809   8.030  14.965   8.081  0.1005 -0.0572 -0.0580
    1W        W36810  13.543  20.171   6.808  0.1356 -0.0500  0.1906
    1W        W36811  11.308   1.070   7.900  0.1772 -0.1650 -0.0836
    1W        W36812   0.829  16.829   1.381  0.1301 -0.1545  0.3707
    1W        W36813  16.390  23.473   5.668  0.0678  0.0429 -0.0647
    1W        W36814  28.868  21.581   0.163  0.4645  0.1196 -0.0944
    1W        W36815  21.702   8.397   7.483  0.2311  0.2230 -0.0643
    1W        W36816   2.993  30.034   8.664 -0.0690  0.1994 -0.0177
    1W        W36817  13.220  30.336   0.270  0.0763  0.5024  0.1465
    1W        W36818  12.891   1.662   6.722 -0.3097 -0.0329  0.1467
    1W        W36819  18.282  11.965   7.488  0.1444 -0.0957  0.4379
    1W        W36820  16.018   2.233   8.577 -0.0958 -0.1667 -0.0546
    1W        W36821  16.247  15.207   0.242  0.1909  0.0231 -0.0017
    1W        W36822  24.626   2.802   1.092  0.1286 -0.0874  0.1605
    1W        W36823  16.422   0.149   9.240 -0.2554 -0.0833 -0.3487
    1W        W36824  17.088   7.279   5.779 -0.1153 -0.2686 -0.3464
    1W        W36825  25.551  13.910   6.354 -0.2536 -0.0714  0.0094
    1W        W36826  18.540  26.076   6.946 -0.2089 -0.0725 -0.2688
    1W        W36827  14.727   1.741   8.177 -0.0554  0.2025 -0.1164
    1W        W36828  22.971  24.351   7.232  0.1657 -0.1363  0.2837
    1W        W36829  10.619   5.629   8.961 -0.3878 -0.1284  0.0383
    1W        W36830   8.596  27.557   8.438  0.2385 -0.0439 -0.0789
    1W        W36831   5.844  26.087   1.085 -0.1140 -0.0290 -0.0228
    1W        W36832  16.911   8.540   1.857  0.0873  0.2270 -0.0080
    1W        W36833   9.150   4.466   6.238  0.0155  0.1185  0.0351
    1W        W36834  16.050  19.485   7.046 -0.0913  0.5242 -0.1144
    1W        W36835   9.610   4.932   8.039  0.5898 -0.0215 -0.0505
    1W        W36836  13.414  22.328   7.810 -0.0631 -0.0536  0.1276
    1W        W36837   2.872   7.602   1.974  0.0368 -0.0117  0.1036
    1W        W36838  16.210   1.172   6.443  0.0734  0.1305 -0.1426
    1W        W36839  24.784   1.698   1.713 -0.0243 -0.0451 -0.0870
    1W        W36840  21.305  24.111   9.061  0.0013  0.1144 -0.1538
    1W        W36841  21.694  27.815   2.346  0.2398  0.1559  0.3073
    1W        W36842  13.713   7.226   2.242  0.2772 -0.0297 -0.0923
    1W        W36843   8.194  21.240   7.740  0.1193 -0.0759 -0.1024
    1W        W36844  15.190   1.815   9.013 -0.0928  0.2687 -0.2262
    1W        W36845  20.986   3.102   7.415  0.3541  0.3989 -0.1181
    1W        W36846  28.109  14.034   6.917 -0.2405  0.1280 -0.2178
    1W        W36847   8.668   5.411   2.423  0.3284  0.0300 -0.2102
    1W        W36848   8.857  15.586   7.337  0.0171 -0.2655  0.2063
    1W        W36849   5.362  18.174   7.450  0.0481 -0.0464  0.1866
    1W        W36850  22.658   0.441   8.566  0.0170  0.1118  0.1521
    1W        W36851  21.978  24.099   9.216  0.0980 -0.0257 -0.0028
    1W        W36852  26.055  19.337   1.077 -0.2452  0.0505  0.0923
    1W        W36853   0.430   2.866   0.528  0.1478  0.0358 -0.0505
    1W        W36854  12.397   9.903   1.864 -0.0831  0.0839 -0.1131
    1W        W36855  23.447  26.081   0.829  0.1677 -0.0676  0.1399
    1W        W36856  12.381   5.179   6.881  0.2493 -0.2270  0.0369
    1W        W36857  27.992  21.326   0.968 -0.1546 -0.1391 -0.2886
    1W        W36858   1.596  24.421   0.651  0.0575  0.2334  0.0103
    1W        W36859   0.525  22.920   7.184 -0.1384  0.1608 -0.0580
    1W        W36860  23.164  27.988   2.856 -0.1877 -0.1146  0.5184
    1W        W36861  17.906  19.857   6.672  0.1232 -0.1799  0.1940
    1W        W36862  25.042  14.620   8.550 -0.1754  0.1761 -0.0176
    1W        W36863   5.708   9.690   2.029 -0.0800 -0.0099 -0.0396
    1W        W36864  18.870  22.743   8.139 -0.0813 -0.2154 -0.0333
    1W        W36865   4.382   3.940   1.682 -0.0027  0.0197  0.1130
    1W        W36866  15.793  19.693   1.664 -0.0889  0.3235 -0.1092
    1W        W36867  17.969  24.950   7.427  0.0880 -0.0287  0.3551
    1W        W36868  22.849  17.327   6.377 -0.2250  0.1192 -0.2369
    1W        W36869  23.671   0.667   1.949 -0.2390  0.2779 -0.0666
    1W        W36870   7.896  13.434   1.807 -0.0471 -0.1161 -0.0611
    1W        W36871   9.989   0.982   3.450 -0.0067  0.2289 -0.0461
    1W        W36872  30.036   2.370   2.961  0.2020  0.2887 -0.1840
    1W        W36873  12.188  24.028   7.568 -0.0986  0.0768 -0.0664
    1W        W36874   3.906  12.699   0.681 -0.2351 -0.2378  0.0219
    1W        W36875   8.449  27.652   6.598  0.0843 -0.2053 -0.0658
    1W        W36876  14.287  24.860   9.265  0.0478  0.1672 -0.1502
    1W        W36877  23.395   2.279   7.770  0.1318  0.1254 -0.2206
    1W        W36878  22.906   1.158   3.637 -0.0281  0.0076 -0.3210
    1W        W36879  20.755  10.235   7.200  0.3147 -0.0106 -0.3528
    1W        W36880  11.441  17.379   6.318 -0.0976 -0.0098  0.0412
    1W        W36881  21.955  25.324   2.984  0.1245 -0.0671 -0.1671
    1W        W36882   1.344   8.089   0.125 -0.1820 -0.0252 -0.0576
    1W        W36883  29.878  17.714   1.546 -0.0224 -0.0619 -0.1117
    1W        W36884  17.907  12.152   7.213 -0.0096  0.6343 -0.1392
    1W        W36885  22.830  16.411   7.179 -0.1816 -0.1739 -0.0304
    1W        W36886  25.892  21.703   1.441 -0.0521 -0.2056 -0.0733
    1W        W36887  25.422  14.074   7.154 -0.2714 -0.0704  0.1512
    1W        W36888  23.228  26.209   0.380  0.2282  0.1311 -0.2444
    1W        W36889   7.272  28.361   9.031  0.0921 -0.3934 -0.1122
    1W        W36890  16.626   0.711   6.433 -0.1465  0.1664 -0.0306
    1W        W36891   0.300  15.970   1.966 -0.2556  0.1166  0.1115
    1W        W36892  26.233   1.988   0.449 -0.3062 -0.0459 -0.2959
    1W        W36893  30.096  28.519   2.113  0.0660  0.1423 -0.0752
    1W        W36894  15.467  22.772   6.158  0.0182  0.2547  0.0737
    1W        W36895  16.526  16.984   0.683 -0.0440  0.2993 -0.0175
    1W        W36896  17.334   6.083   5.468  0.3462 -0.1095 -0.2393
    1W        W36897   3.670  15.890   7.611  0.1739 -0.0215  0.0464
    1W        W36898  12.200  13.901   7.196  0.1029 -0.2782  0.2180
    1W        W36899  19.659  25.489   0.857 -0.0617  0.1232  0.3879
    1W        W36900  23.485   8.900   8.882 -0.1000 -0.0378  0.0921
    1W        W36901  11.027   5.068   7.794 -0.2462  0.2820 -0.2260
    1W        W36902  10.909  14.414   8.455 -0.1894  0.0417 -0.2879
    1W        W36903  22.971  16.560   1.154  0.1863 -0.0449  0.0336
    1W        W36904  25.755  18.014   8.891  0.0266  0.0839 -0.3536
    1W        W36905  22.577  28.848   3.084 -0.2732 -0.0353 -0.0374
    1W        W36906  29.227   4.610   8.794 -0.2251  0.0849 -0.0972
    1W        W36907  17.517  15.704   1.874 -0.2522 -0.0430  0.2340
    1W        W36908  26.759  25.993   1.577 -0.1272  0.1595 -0.1759
    1W        W36909   7.878  16.750   7.926  0.0078  0.0988  0.0488
    1W        W36910   4.993  28.249   2.517  0.2433  0.2073 -0.1876
    1W        W36911  20.448  19.273   6.220  0.0369  0.1911  0.0618
    1W        W36912  18.314  16.457   0.552  0.1450 -0.1407 -0.0162
    1W        W36913  12.819   5.162   7.975 -0.3284  0.3952 -0.0096
    1W        W36914   8.429  14.166   8.929  0.0254  0.1299 -0.0294
    1W        W36915  22.520  24.263   6.990  0.1143 -0.1630 -0.1896
    1W        W36916  22.735   4.784   6.334 -0.4416 -0.0186 -0.1691
    1W        W36917   4.590   2.464   0.178 -0.2382  0.3363  0.1528
    1W        W36918  27.382  26.468   7.467  0.1503  0.1028 -0.1273
    1W        W36919   3.393  25.337   6.654 -0.2639 -0.0149 -0.0466
    1W        W36920  28.140   5.666   3.562  0.0073 -0.2248  0.1156
    1W        W36921   5.249  26.538   8.934 -0.3287 -0.4166 -0.1868
    1W        W36922   8.522   2.269   0.859 -0.0744 -0.0600 -0.2327
    1W        W36923  29.264  29.751   8.088  0.1170 -0.1158 -0.0571
    1W        W36924   9.795  21.282   7.228  0.1666  0.0807 -0.0473
    1W        W36925   1.749   8.245   9.055  0.0641  0.0346  0.0211
    1W        W36926   4.963   8.930   8.482  0.2517 -0.0181 -0.2356
    1W        W36927   8.781  17.329   1.376 -0.0123 -0.0492  0.0116
    1W        W36928  27.935   8.620   7.419 -0.0958 -0.1144 -0.1088
    1W        W36929   5.023  28.718   3.453  0.2590 -0.2111 -0.2567
    1W        W36930  22.016  14.870   2.692 -0.1477 -0.1876  0.0501
    1W        W36931  13.593   0.111   2.097  0.0062 -0.1340  0.2323
    1W        W36932   6.867  18.282   1.768  0.3075  0.0057 -0.0625
    1W        W36933  25.126  28.648   3.153  0.0377  0.0837  0.0356
    1W        W36934  10.055  21.769   8.426 -0.1322 -0.1080 -0.1383
    1W        W36935  27.850  25.449   8.284 -0.1338 -0.1873  0.2246
    1W        W36936  15.219  22.389   0.327 -0.0750 -0.1008  0.0816
    1W        W36937  17.494  16.615   1.107 -0.0254 -0.0266  0.2889
    1W        W36938  26.049  20.177   0.852  0.0666 -0.1249 -0.2532
    1W        W36939   5.560  22.410   0.287 -0.2432  0.1936 -0.1086
    1W        W36940   4.006   2.575   3.181 -0.0454  0.0190  0.2027
    1W        W36941  18.915   2.662   2.728  0.0724 -0.0282  0.0740
    1W        W36942  28.563  29.774   3.374 -0.1611  0.0974  0.0697
    1W        W36943  25.287   6.761   2.387  0.0659  0.3502  0.3580
    1W        W36944  30.353  26.943   8.014 -0.1530 -0.2212 -0.3580
    1W        W36945  21.102  22.944   2.127 -0.1485  0.1222 -0.2413
    1W        W36946   3.307  22.716   7.838  0.1927 -0.0387  0.2358
    1W        W36947  16.823   3.752   9.229  0.1123 -0.0223 -0.0126
    1W        W36948  19.888  25.914   8.235 -0.1118 -0.2634  0.0164
    1W        W36949   9.604  20.605   1.626  0.0316  0.0305 -0.0108
    1W        W36950  12.982   0.094   6.936  0.1339 -0.1683 -0.0417
    1W        W36951  24.032  23.875   1.284 -0.0357  0.0029 -0.0799
    1W        W36952   0.688  18.864   9.078  0.2628  0.0310 -0.0082
    1W        W36953  22.065  11.556   6.832 -0.0700 -0.0692  0.0274
    1W        W36954  18.211  21.305   6.633 -0.1017  0.0676 -0.0607
    1W        W36955  13.496  25.971   2.068  0.2154  0.1150  0.1333
    1W        W36956  17.988  26.620   7.446 -0.0443  0.0825  0.0639
    1W        W36957   7.650  17.469   8.299 -0.2762  0.0467 -0.1458
    1W        W36958  11.882   8.931   2.319  0.0853 -0.0166  0.1625
    1W        W36959   9.112  14.481   0.035  0.0371  0.0929 -0.0264
    1W        W36960  22.826   7.767   9.019  0.1281  0.1805 -0.0593
    1W        W36961  21.401   3.451   2.448 -0.1146  0.3925 -0.0574
    1W        W36962   9.280  22.271   8.813  0.1307 -0.0057 -0.2486
    1W        W36963  27.894  17.350   6.741 -0.1570  0.0856 -0.4009
    1W        W36964  10.992  24.558   1.085  0.2177  0.0867  0.3353
    1W        W36965  17.065  27.485   2.030  0.5816  0.3284 -0.4570
    1W        W36966   2.027  17.915   6.841  0.1934  0.0016 -0.2491
    1W        W36967  27.634   9.197   0.945 -0.0517 -0.0274 -0.2355
    1W        W36968   4.583  21.635   1.752  0.0046 -0.3777  0.2638
    1W        W36969  13.760  21.128   1.410 -0.1327  0.0244  0.0807
    1W        W36970  10.985   6.795   7.139 -0.0414 -0.2130 -0.0690
    1W        W36971  26.318   2.109   3.691  0.2532 -0.0804  0.0716
    1W        W36972   1.367   2.669   2.764 -0.2510 -0.1850  0.2924
    1W        W36973  29.133  28.427   8.145  0.1355  0.1046  0.0249
    1W        W36974  27.938  18.586   1.289  0.3994 -0.1499 -0.0175
    1W        W36975   4.595  14.231   8.877 -0.0055 -0.2843 -0.3200
    1W        W36976   4.350  30.210   7.429  0.2784  0.2688 -0.2014
    1W        W36977  18.459  30.101   2.797  0.2082  0.0930  0.2227
    1W        W36978  21.142  27.404   1.489 -0.4570  0.0425  0.1022
    1W        W36979   6.152  20.095   0.790  0.1236  0.1179 -0.1440
    1W        W36980   4.303  20.213   9.091  0.0836 -0.0290  0.0475
    1W        W36981  12.579   7.859   9.209  0.0860 -0.1279  0.1258
    1W        W36982   9.433  21.854   8.436 -0.0605  0.0305 -0.0637
    1W        W36983  28.450   3.283   3.010  0.4470 -0.0470 -0.0386
    1W        W36984  28.042   5.592   8.684  0.5408 -0.0930  0.1081
    1W        W36985   7.504  20.649   0.115  0.3352  0.1887 -0.0062
    1W        W36986   4.448   0.025   2.253  0.2425  0.2247  0.2587
    1W        W36987  25.668   2.353   9.031 -0.0774 -0.0555  0.1057
    1W        W36988  26.254  29.736   8.130  0.2011  0.0218  0.0697
    1W        W36989  16.077  25.901   8.598  0.0773  0.0691  0.0472
    1W        W36990  19.966  21.927   7.751 -0.1346  0.0351 -0.3572
    1W        W36991  28.877  16.771   6.653  0.0262 -0.2030 -0.0188
    1W        W36992  15.577  26.004   1.542  0.1457 -0.1209  0.1946
    1W        W36993   5.377  27.414   1.725 -0.3049 -0.3864 -0.1342
    1W        W36994  12.931  10.407   0.522  0.0346 -0.0723 -0.0035
    1W        W36995   9.678  23.592   1.498  0.1282 -0.0625 -0.1261
    1W        W36996   0.812  23.161   9.010  0.0252  0.2433  0.1859
    1W        W36997  24.754  19.807   6.802 -0.0702  0.0683 -0.1877
    1W        W36998  29.248  17.234   0.115  0.2391 -0.0118 -0.1232
    1W        W36999   8.915   1.315   7.005  0.1116  0.0865 -0.0197
    1W        W37000  22.727  14.203   6.708 -0.0931 -0.0536  0.2395
    1W        W37001  22.923   1.583   8.322 -0.0772  0.0156  0.2044
    1W        W37002  22.352   4.337   3.000  0.1527 -0.0126  0.2223
    1W        W37003  14.329  16.137   8.617  0.0292  0.2792 -0.0832
    1W        W37004   7.769   0.422   7.643 -0.2867  0.0618  0.0133
    1W        W37005   6.696   5.190   8.855 -0.1389 -0.1534 -0.0889
    1W        W37006  10.935  16.423   2.415  0.0812 -0.1764  0.0338
    1W        W37007  29.943  12.356   7.804 -0.2192  0.1336 -0.1916
    1W        W37008  15.875  19.192   1.758  0.0040  0.2882 -0.2593
    1W        W37009  26.513  27.989   8.900 -0.1446  0.0407 -0.0193
    1W        W37010  13.367  18.811   6.215  0.2450 -0.1842 -0.0979
    1W        W37011  12.433  24.924   7.162 -0.0352  0.0069 -0.3318
    1W        W37012  11.844  25.209   1.182 -0.1708 -0.1433  0.0862
    1W        W37013  21.125  29.689   7.591 -0.1010 -0.1646  0.2882
    1W        W37014  20.089  19.512   1.085  0.0072  0.0617  0.0047
    1W        W37015  25.619  25.833   6.635  0.1065  0.3126  0.1282
    1W        W37016   0.678   5.500   2.088 -0.1804  0.1446 -0.2153
    1W        W37017  29.717   2.670   2.663  0.2552 -0.3317 -0.0732
    1W        W37018  30.145   9.062   8.079  0.3445  0.1639  0.1889
    1W        W37019  19.013  10.839   8.880 -0.0382  0.3847  0.2441
    1W        W37020  10.523  29.693   0.013  0.3637  0.0121  0.3561
    1W        W37021   6.457   2.395   2.234  0.0606  0.5886 -0.2628
    1W        W37022  27.697  14.671   7.187 -0.2402 -0.1661  0.0355
    1W        W37023  27.932  29.482   8.694  0.0948  0.0666  0.1071
    1W        W37024   9.352   4.229   1.074  0.2686 -0.0264 -0.0732
    1W        W37025  19.487   4.747   0.972  0.2824  0.1942 -0.0358
    1W        W37026   2.147   5.929   7.121  0.2084  0.1383 -0.2343
    1W        W37027   0.436   4.150   6.899 -0.1421  0.0005  0.0038
    1W        W37028   2.951  26.378   2.370  0.0867  0.1153  0.0188
    1W        W37029  23.335   7.369   2.395  0.0681 -0.0438 -0.0955
    1W        W37030  25.889   0.424   6.696 -0.2695 -0.0032  0.0167
    1W        W37031  24.293   7.763   8.311  0.4182  0.0814 -0.1479
    1W        W37032  13.379  28.865   8.916 -0.0761  0.1160 -0.0307
    1W        W37033   4.013  10.248   8.433 -0.3084  0.1285  0.1129
    1W        W37034  18.094  22.195   1.456  0.2324 -0.0479  0.0971
    1W        W37035  23.320   6.052   0.668  0.0176 -0.2768 -0.0743
    1W        W37036   6.222  26.726   7.109 -0.1360  0.2093  0.0786
    1W        W37037   8.848  21.803   8.168 -0.1034 -0.0435 -0.0706
    1W        W37038  12.074  18.019   8.725 -0.1646 -0.2080 -0.0676
    1W        W37039  26.229   5.650   6.812 -0.1231 -0.2271 -0.0598
    1W        W37040  23.703  28.553   0.796 -0.2055 -0.2066 -0.1040
    1W        W37041  16.461   2.988   0.304  0.0184  0.0441 -0.1998
    1W        W37042  28.087  21.770   7.298  0.0114  0.3459  0.1307
    1W        W37043   3.303   1.158   8.934 -0.1444 -0.0626  0.1413
    1W        W37044  20.037   4.154   0.028  0.2809 -0.1332  0.0979
    1W        W37045  25.129  20.451   1.665 -0.0447  0.2378  0.1799
    1W        W37046  17.173   2.759   1.782 -0.2994  0.0012  0.0334
    1W        W37047  11.662   9.796   2.984  0.0304  0.3691 -0.1871
    1W        W37048  18.584   7.922   0.526  0.0537 -0.0026  0.0701
    1W        W37049  19.523   5.626   0.838  0.2891 -0.0559  0.1463
    1W        W37050  22.755  13.716   1.925  0.1816  0.1761 -0.1055
    1W        W37051  25.724  23.466   7.070  0.3463  0.0848  0.1362
    1W        W37052  26.790   5.006   0.186  0.3295  0.0740 -0.1167
    1W        W37053   7.402   0.599   9.062  0.1750  0.3103  0.2717
    1W        W37054   6.807   7.885   1.238  0.0421 -0.1347  0.3072
    1W        W37055   4.251  26.295   1.074 -0.1623 -0.0270  0.0540
    1W        W37056   5.049  27.982   7.252 -0.1483 -0.0525  0.0134
    1W        W37057  23.952  24.913   5.970  0.4681 -0.0731 -0.2670
    1W        W37058  14.387  25.892   7.767 -0.2227  0.0839  0.0955
    1W        W37059   7.305   4.660   1.592 -0.3227 -0.0069  0.0618
    1W        W37060  13.531   0.784   7.989  0.1034 -0.0720  0.1142
    1W        W37061  19.662  18.884   0.351  0.0367 -0.0018 -0.2385
    1W        W37062   8.485   8.889   1.676 -0.2156 -0.0987 -0.0832
    1W        W37063  13.472  14.859   2.842  0.1685  0.1376  0.3373
    1W        W37064  20.951   1.127   1.471  0.1231 -0.0809  0.2212
    1W        W37065   9.272  29.724   7.665  0.1297  0.0699  0.1485
    1W        W37066   7.398  19.304   2.138 -0.0662  0.1133  0.0117
    1W        W37067  29.871   7.830   8.937 -0.4127 -0.0955 -0.1896
    1W        W37068   8.988  18.150   7.123  0.1129 -0.2502 -0.2019
    1W        W37069   0.039   3.779   0.672 -0.0337 -0.2226 -0.1807
    1W        W37070  19.281  16.792   8.820 -0.0320  0.0613 -0.1690
    1W        W37071  17.092  15.924   2.616 -0.1918  0.0264 -0.0970
    1W        W37072  15.893  23.401   9.149  0.2262 -0.0374 -0.0095
    1W        W37073  21.077  29.414   0.512 -0.1301  0.1633  0.1700
    1W        W37074  22.827  26.255   8.100 -0.0635  0.5147 -0.1709
    1W        W37075   8.639   2.616   8.957  0.1050 -0.2007  0.1231
    1W        W37076  12.163   9.789   3.735  0.2876 -0.1389  0.0016
    1W        W37077  25.145  13.866   6.771  0.2378 -0.2093  0.1891
    1W        W37078  28.967   5.051   1.954 -0.0844  0.0091  0.0879
    1W        W37079  20.857  13.801   0.103  0.1027  0.3349  0.2014
    1W        W37080  24.008  15.677   0.723  0.0817  0.1532  0.2431
    1W        W37081  25.005   7.416   2.935 -0.1938  0.2026 -0.0942
    1W        W37082   4.786  19.338   5.412  0.2908  0.0905  0.0759
    1W        W37083  12.291   2.653   9.204 -0.0691 -0.2450 -0.0255
    1W        W37084   5.325  12.981   0.329  0.0767  0.0414  0.1735
    1W        W37085   0.349   6.712   8.318 -0.0892  0.3683 -0.1537
    1W        W37086  21.876   8.902   1.504 -0.0686 -0.3305 -0.3086
    1W        W37087   0.203   5.002   6.416 -0.1664  0.0182 -0.3860
    1W        W37088  22.362  18.588   1.524  0.1053 -0.2031  0.0693
    1W        W37089  24.931  11.272   1.317  0.2910 -0.1824 -0.0128
    1W        W37090  10.831  24.686   2.313  0.0446 -0.0254 -0.1323
    1W        W37091   3.785   8.733   8.465 -0.1828  0.1488  0.1859
    1W        W37092   3.652   9.939   0.194 -0.2524  0.0894  0.0252
    1W        W37093  11.666  19.289   1.827  0.1833 -0.0644  0.1884
    1W        W37094  26.922   3.571   9.096 -0.2792  0.0077 -0.0784
    1W        W37095   0.281   1.450   0.627  0.1792 -0.1266 -0.0187
    1W        W37096   5.119  11.287   6.758  0.0815  0.1111  0.1402
    1W        W37097  14.507   9.750   1.545  0.1989 -0.1490  0.2164
    1W        W37098  17.698   7.878   6.738  0.2925  0.2175 -0.1608
    1W        W37099  23.583   3.508   9.078  0.1045 -0.1160 -0.0082
    1W        W37100   4.960   0.018   2.041  0.0770  0.0597  0.1984
    1W        W37101  10.728  20.504   1.015  0.0055  0.0836 -0.1060
    1W        W37102  24.475  29.648   7.906 -0.2946  0.3866  0.1076
    1W        W37103   5.031   8.767   7.756  0.0342 -0.0975  0.1478
    1W        W37104   8.147   5.469   2.300  0.1477 -0.2016 -0.3417
    1W        W37105  24.615  15.286   0.302 -0.0637  0.2499 -0.0003
    1W        W37106   7.185  24.132   0.829  0.1922  0.0437  0.0081
    1W        W37107   1.184   7.908   1.243  0.0421 -0.1863 -0.1832
    1W        W37108   6.230  11.206   1.432  0.2923 -0.1772  0.0051
    1W        W37109   8.117   4.567   8.791  0.2891  0.3720 -0.1765
    1W        W37110  25.320  14.394   0.528 -0.1265  0.0172  0.1668
    1W        W37111   5.364  24.201   8.837 -0.0448 -0.2719 -0.0530
    1W        W37112   6.280  14.184   7.865  0.2404  0.1218 -0.0289
    1W        W37113  18.283  12.993   2.099 -0.4286 -0.0079  0.1291
    1W        W37114   0.831  10.693   7.793  0.0248  0.0152  0.1275
    1W        W37115  18.611  18.773   7.646 -0.2956  0.0708  0.2846
    1W        W37116  23.760  14.558   0.147  0.0448  0.2245  0.2700
    1W        W37117  18.405  27.673   1.913  0.2042 -0.0695 -0.0712
    1W        W37118  20.808  18.306   6.261 -0.0107 -0.0093 -0.0281
    1W        W37119  25.514   4.472   1.192  0.0787 -0.1767  0.0990
    1W        W37120  15.123  17.608   0.005  0.0690  0.2288  0.1608
    1W        W37121  19.906  13.090   7.732 -0.1755 -0.2171 -0.0715
    1W        W37122  25.905   8.443   8.407 -0.0174  0.2110 -0.0038
    1W        W37123  12.945   2.844   8.646 -0.0018  0.2311  0.5244
    1W        W37124  27.970  22.012   1.959 -0.1728 -0.2162  0.2572
    1W        W37125   5.860  12.769   8.978 -0.4184  0.2398  0.1134
    1W        W37126  15.663  28.547   8.670  0.2717 -0.0677 -0.1256
    1W        W37127  22.026  13.957   8.772  0.2839 -0.1109  0.3688
    1W        W37128  23.728  25.414   1.248 -0.0697  0.0689  0.3565
    1W        W37129  17.089  17.692   7.861  0.2984  0.1440 -0.0545
    1W        W37130  20.804   8.684   0.068 -0.1136  0.0761 -0.3801
    1W        W37131   7.744   0.997   6.400 -0.0712  0.0459  0.1275
    1W        W37132   9.393  13.987   1.519  0.1069 -0.0063 -0.1528
    1W        W37133  30.110   6.563   7.971  0.1934  0.1191 -0.2717
    1W        W37134  12.633  22.637   8.955  0.3308  0.1658  0.0801
    1W        W37135  13.190  15.470   1.365 -0.1505 -0.1176 -0.0989
    1W        W37136  11.669  19.577   8.129  0.0675 -0.0327  0.0414
    1W        W37137  19.031   4.327   0.883  0.3965  0.3576  0.1019
    1W        W37138  14.540   6.244   8.721  0.1136  0.3399 -0.2116
    1W        W37139  17.487  22.004   7.685 -0.2426 -0.1554  0.2673
    1W        W37140  26.560   2.427   3.340  0.0014  0.0586 -0.2373
    1W        W37141  12.806  14.283   2.069 -0.0651  0.2213  0.0093
    1W        W37142   6.953   2.017   1.331  0.0581 -0.1298 -0.2026
    1W        W37143  10.259   8.169   7.483  0.2430  0.0667  0.0588
    1W        W37144   9.240  13.367   2.455 -0.2059 -0.1379 -0.2236
    1W        W37145   7.225  19.865   5.549  0.3219  0.2181  0.1672
    1W        W37146  15.276  22.810   0.138  0.0283 -0.0695  0.0514
    1W        W37147   3.567  27.971   1.364 -0.2656  0.1462 -0.0092
    1W        W37148   9.860  23.564   7.394  0.1015  0.0674  0.1252
    1W        W37149  16.593  16.209   8.853 -0.1480 -0.5718  0.0972
    1W        W37150   1.108   0.892   2.908 -0.1983  0.0278  0.2194
    1W        W37151   3.799   0.422   8.096  0.3186 -0.1782 -0.0461
    1W        W37152   3.928  21.791   8.318 -0.1877 -0.0243  0.3157
    1W        W37153  14.309   7.187   7.134  0.3140 -0.0220 -0.1580
    1W        W37154  12.703  15.670   1.029 -0.1213 -0.0905 -0.0538
    1W        W37155   7.472  16.082   0.333  0.0691  0.0176  0.0073
    1W        W37156  26.459   8.464   9.205 -0.2634  0.0597  0.3020
    1W        W37157   6.944  18.948   8.700  0.1148 -0.1483  0.0654
    1W        W37158  30.342   3.993   2.172  0.2235 -0.0483  0.2145
    1W        W37159  13.465   0.638   8.921 -0.3019 -0.3498  0.0397
    1W        W37160  28.030  28.261   0.586  0.0224  0.0917 -0.0915
    1W        W37161  24.039  24.879   0.114 -0.2457  0.0011  0.0760
    1W        W37162   5.974  16.052   9.058 -0.1653  0.0846 -0.1339
    1W        W37163   8.673  20.647   5.669  0.3408  0.0829  0.0212
    1W        W37164  12.941  29.382   1.536  0.2389 -0.1790  0.3840
    1W        W37165  12.688   0.454   8.199 -0.2936  0.1127  0.1121
    1W        W37166  10.550   2.341   0.602  0.2794 -0.2985 -0.1412
    1W        W37167  11.745  29.458   8.561  0.0713  0.0667  0.0082
    1W        W37168  21.847   1.569   2.414  0.0605 -0.2665  0.1089
    1W        W37169  23.648   7.679   7.699  0.1650 -0.1235 -0.0953
    1W        W37170  11.859  26.455   7.615  0.0158 -0.1716 -0.1370
    1W        W37171  11.243  15.769   2.027  0.4871 -0.0312 -0.1314
    1W        W37172  10.898   0.584   1.384 -0.0044 -0.2082 -0.0771
    1W        W37173   3.932  18.714   0.991 -0.0819 -0.3777 -0.2294
    1W        W37174   5.265   1.436   2.427  0.2405  0.2051  0.2150
    1W        W37175  14.801  25.043   8.235  0.2961 -0.0515 -0.0493
    1W        W37176  25.883  20.067   7.171  0.1605  0.4269 -0.3114
    1W        W37177  29.532  15.161   7.688 -0.1710  0.1536 -0.1504
    1W        W37178  18.953  13.227   6.311 -0.2573  0.3297  0.1762
    1W        W37179  20.452  17.430   1.345 -0.0262  0.2237  0.3038
    1W        W37180  18.815  10.025   0.217 -0.2649  0.0659  0.0983
    1W        W37181  16.301   9.307   0.190  0.0443  0.4194 -0.5399
    1W        W37182  23.649  19.772   6.278 -0.2198 -0.2041 -0.0369
    1W        W37183  26.724   8.001   7.697  0.1004  0.0490 -0.0255
    1W        W37184  30.229  22.017   0.371  0.1576 -0.0670 -0.1250
    1W        W37185   4.604  25.412   8.608  0.1805 -0.1451 -0.0852
    1W        W37186  15.727   2.619   2.095  0.3150  0.5307 -0.1099
    1W        W37187  23.546   9.639   1.595  0.2283 -0.1839  0.1104
    1W        W37188  24.370   9.474   6.238  0.1282  0.1601  0.1547
    1W        W37189  14.576  14.221   8.987  0.4549 -0.1788 -0.1048
    1W        W37190  12.356   3.048   0.189  0.0475 -0.0350  0.2714
    1W        W37191   7.639  28.562   2.833  0.0171 -0.1801 -0.1001
    1W        W37192  13.702  17.410   8.444 -0.3374 -0.1638 -0.1907
    1W        W37193   0.805   0.159   3.234 -0.3339 -0.3629 -0.0639
    1W        W37194  20.691  26.559   8.437 -0.0650  0.0330 -0.1372
    1W        W37195  28.245  15.750   1.985 -0.1548  0.1099 -0.0769
    1W        W37196  11.665   8.646   1.300  0.0826  0.0882 -0.4279
    1W        W37197   9.673  28.999   8.085 -0.3135 -0.1591  0.0591
    1W        W37198  14.018  20.085   7.070  0.0142  0.1746  0.0314
    1W        W37199   3.289   0.846   7.040  0.0600 -0.0061 -0.0064
    1W        W37200  10.973  29.627   2.475  0.3048 -0.3898  0.2738
    1W        W37201  24.840  22.605   1.770  0.2778 -0.2246  0.3149
    1W        W37202  12.981  23.216   6.151 -0.2416  0.0323  0.2040
    1W        W37203  22.888   6.559   7.286 -0.0463  0.0696  0.2321
    1W        W37204  12.346  12.020   8.994  0.1382 -0.0271  0.3530
    1W        W37205   3.693   7.314   2.206  0.0676  0.1546  0.1196
    1W        W37206  23.942   6.519   7.152 -0.0554 -0.1285 -0.2012
    1W        W37207  19.031  16.414   1.844 -0.2893  0.3397  0.1668
    1W        W37208   8.268  14.271   1.695 -0.0669 -0.0112 -0.1149
    1W        W37209   6.320  27.021   7.519  0.0723  0.0932 -0.0505
    1W        W37210   3.637  14.716   0.916 -0.1670 -0.1926 -0.3247
    1W        W37211  10.534  14.824   1.318  0.1507 -0.2488 -0.1126
    1W        W37212  19.379   9.346   1.612 -0.3232 -0.0563  0.0676
    1W        W37213   6.702  18.217   0.966 -0.1121 -0.2253 -0.1093
    1W        W37214   5.331  24.743   8.751 -0.0837  0.2465 -0.2806
    1W        W37215   9.071  14.300   1.732 -0.0930  0.0521  0.1238
    1W        W37216  26.668   6.840   7.233 -0.2327  0.3529  0.0631
    1W        W37217  27.772  27.863   8.217  0.0609  0.3450 -0.2506
    1W        W37218  14.268  27.845   0.339  0.1222 -0.1883  0.1522
    1W        W37219  17.603  27.972   8.504  0.0413 -0.0518 -0.0562
    1W        W37220  17.503   1.221   8.185 -0.0158 -0.1383 -0.1689
    1W        W37221   3.501  10.031   8.952  0.2855 -0.2187  0.0469
    1W        W37222  11.930  14.173   7.519  0.0748  0.0886 -0.1111
    1W        W37223   6.086  10.962   8.429 -0.1064  0.2168  0.1592
    1W        W37224  10.247  20.011   8.157 -0.2995 -0.0568  0.1380
    1W        W37225  22.915   2.396   1.204  0.0014  0.0889  0.0290
    1W        W37226  18.523   0.041   8.548 -0.2209 -0.4309 -0.2026
    1W        W37227  10.125   4.559   2.155  0.1657  0.2695 -0.0526
    1W        W37228   4.017  27.645   0.539 -0.1896 -0.0476 -0.2566
    1W        W37229  28.241   1.781   7.992 -0.0604 -0.0004 -0.1201
    1W        W37230  25.078  20.851   1.418  0.2000 -0.1929 -0.2415
    1W        W37231  19.842  11.900   7.315  0.2155 -0.2259 -0.1069
    1W        W37232  14.559  13.676   0.036  0.0410  0.0612 -0.0842
    1W        W37233  10.943   9.739   7.859  0.1728 -0.0766 -0.2632
    1W        W37234  20.407  28.944   6.534  0.4638  0.0589  0.1240
    1W        W37235   9.112  14.421   0.575  0.0727  0.0205 -0.2295
    1W        W37236  28.242  22.233   0.075 -0.1873 -0.0579  0.0532
    1W        W37237  10.138   7.162   0.007 -0.0433  0.0812 -0.1447
    1W        W37238   0.382   2.007   0.447  0.0539  0.0884  0.2536
    1W        W37239  21.802  20.407   5.828 -0.0592  0.2335  0.3699
    1W        W37240   9.395  15.431   7.284 -0.0960 -0.3841  0.1830
    1W        W37241   3.005  11.514   0.634  0.0004  0.0730  0.1453
    1W        W37242  11.925   8.744   8.612  0.1378 -0.0571 -0.0457
    1W        W37243  19.626  12.417   1.131 -0.0168 -0.0389 -0.0246
    1W        W37244   6.512  15.282   2.381  0.0767  0.0075 -0.0401
    1W        W37245  12.466  27.709   9.214  0.1865 -0.1336 -0.0220
    1W        W37246  10.257  20.828   6.427  0.1984  0.2059  0.1674
    1W        W37247   7.301   2.270   0.495 -0.1213  0.0236  0.0022
    1W        W37248   0.041  27.431   8.851  0.1129 -0.2725  0.3634
    1W        W37249  14.055   5.323   8.664 -0.0679 -0.0243  0.2619
    1W        W37250   9.451  16.131   2.389 -0.3488 -0.0824 -0.1125
    1W        W37251  19.963   0.368   0.724  0.2066  0.0660  0.1616
    1W        W37252  23.937  14.454   2.435  0.2441 -0.1786  0.4107
    1W        W37253  10.278   3.208   0.982 -0.1314 -0.0215 -0.2724
    1W        W37254   0.265  29.207   8.788 -0.0052  0.0728  0.3813
    1W        W37255   0.447   0.308   0.640 -0.1445  0.0035  0.1777
    1W        W37256   0.411  14.122   9.050  0.0868 -0.2387  0.0568
    1W        W37257  27.359  10.137   0.050 -0.0974  0.0039  0.0336
    1W        W37258   6.216   1.152   8.185 -0.0530 -0.0902  0.2659
    1W        W37259  28.652   9.047   0.533  0.1306  0.0377  0.0425
    1W        W37260  15.987  11.674   2.501 -0.1268  0.2715  0.3367
    1W        W37261  26.578  24.099   1.028  0.0304 -0.0810 -0.0366
    1W        W37262  19.497  21.882   1.184  0.1620  0.2002 -0.3315
    1W        W37263  19.498  12.441   8.607  0.1694  0.0714  0.1265
    1W        W37264   2.816   4.872   0.138  0.1053 -0.1336 -0.1608
    1W        W37265  12.096  13.653   2.658 -0.0258  0.1721 -0.3909
    1W        W37266   1.558   2.496   1.626  0.0280  0.0139 -0.2415
    1W        W37267  27.298   8.994   1.314 -0.1202  0.0287  0.0623
    1W        W37268   5.856   4.041   2.716  0.0645  0.0724 -0.1291
    1W        W37269  11.245  20.364   1.235 -0.1534  0.1776 -0.0775
    1W        W37270   6.162  27.952   7.656  0.1243  0.1486  0.0618
    1W        W37271   1.496  23.018   0.821 -0.2319  0.2211 -0.0835
    1W        W37272  16.998  28.489   2.270 -0.0944  0.1839  0.2702
    1W        W37273  14.886  13.880   8.629  0.0596 -0.0902 -0.3415
    1W        W37274  11.194   6.858   0.140 -0.0062 -0.0128 -0.1347
    1W        W37275  26.653   9.612   7.882  0.0242  0.0129  0.0888
    1W        W37276  23.906   4.810   2.771  0.0625 -0.0940 -0.0802
    1W        W37277  18.259  22.224   1.965 -0.1729  0.0423  0.0035
    1W        W37278  28.357   9.439   0.128  0.4187  0.0998  0.1326
    1W        W37279  24.595   1.852   2.363 -0.0600  0.1466  0.1863
    1W        W37280   8.884  25.262   2.380  0.0402  0.1035  0.1093
    1W        W37281  15.910  19.575   2.582 -0.3107  0.0335 -0.1499
    1W        W37282  13.549  16.392   7.617  0.1093 -0.0195  0.0831
    1W        W37283  29.973  11.871   1.992  0.0081  0.0126 -0.0394
    1W        W37284   9.276  11.254   0.724  0.4616  0.0948  0.2063
    1W        W37285   8.223  12.303   1.122 -0.1011  0.4776 -0.1862
    1W        W37286  15.264   3.736   6.656  0.1093  0.0898  0.1219
    1W        W37287  18.262  25.143   7.859  0.0584 -0.0332 -0.1357
    1W        W37288  16.743  12.217   3.210  0.2318  0.3951 -0.1326
    1W        W37289  16.489   2.594   7.401  0.0836 -0.1191 -0.3504
    1W        W37290  20.399  18.645   1.588  0.6726 -0.0674  0.1557
    1W        W37291  13.160   1.639   8.354 -0.0587 -0.1463  0.0209
    1W        W37292   9.485  29.797   9.039 -0.1877 -0.2018  0.0202
    1W        W37293  12.025  12.636   1.752  0.1020 -0.2281 -0.0854
    1W        W37294   2.325  11.526   7.476  0.2495 -0.2206  0.3035
    1W        W37295  24.838  19.474   9.057 -0.2063  0.2894 -0.0773
    1W        W37296   1.643  26.560   0.174  0.1333  0.2518 -0.1052
    1W        W37297  25.594  10.763   0.857  0.1009 -0.0719 -0.2634
    1W        W37298  22.959  29.979   2.202  0.1918  0.0366 -0.1822
    1W        W37299  19.891   7.889   1.369  0.1483 -0.1620  0.1833
    1W        W37300  17.998   6.885   0.273  0.1966 -0.0288  0.2880
    1W        W37301  18.514  19.126   1.948  0.3931  0.1015 -0.0035
    1W        W37302  23.066   8.054   2.110  0.1280 -0.5944 -0.0405
    1W        W37303   9.501  12.001   9.000  0.2766  0.1975  0.0831
    1W        W37304   3.902   5.415   0.580  0.1348 -0.2417 -0.1010
    1W        W37305  12.183   2.191   1.003 -0.0639 -0.2005 -0.1250
    1W        W37306  25.380   1.896   2.853 -0.2122  0.1795  0.0784
    1W        W37307  17.670  22.649   0.856  0.1672  0.2718  0.1557
    1W        W37308   7.805  25.489   6.600  0.1537  0.3710 -0.1235
    1W        W37309   9.836   3.066   8.894  0.1783  0.1400  0.2408
    1W        W37310  15.602   4.156   1.602 -0.0633  0.2544 -0.0244
    1W        W37311   7.976  25.971   7.929 -0.1292  0.0454  0.3693
    1W        W37312  11.126  10.144   8.053  0.2924 -0.0436 -0.0848
    1W        W37313  25.838  29.823   8.376 -0.1191  0.0208  0.3570
    1W        W37314  15.836  23.308   2.321 -0.2227  0.0861  0.0948
    1W        W37315  23.547  21.125   8.563 -0.3658 -0.0990  0.0442
    1W        W37316   6.656  11.590   2.497 -0.2125 -0.0358  0.0761
    1W        W37317  19.110   9.380   6.817 -0.0215  0.2946 -0.0107
    1W        W37318  27.983  10.214   6.932 -0.0275 -0.2213  0.0323
    1W        W37319  16.320  21.130   1.645 -0.3051 -0.1186  0.0788
    1W        W37320   5.938  16.189   7.757  0.2534 -0.0364 -0.6055
    1W        W37321   2.906  28.371   6.696 -0.3112 -0.0141 -0.1877
    1W        W37322   3.994  10.760   7.314 -0.0062  0.1115  0.0965
    1W        W37323   6.188   8.132   0.374  0.0797 -0.0873 -0.3528
    1W        W37324   8.703   3.557   2.046 -0.0021 -0.0897 -0.0560
    1W        W37325  17.560  23.644   1.148  0.2452  0.0528 -0.3297
    1W        W37326  25.912  14.254   1.438  0.0033 -0.0021  0.0756
    1W        W37327   5.110   6.099   2.620 -0.1917 -0.1245  0.0762
    1W        W37328  21.479  21.650   1.110  0.0973  0.1918  0.2379
    1W        W37329   2.673   4.235   6.954  0.1028 -0.1638 -0.1184
    1W        W37330  10.674   9.329   2.631 -0.1278 -0.2413 -0.1018
    1W        W37331  30.288   3.836   1.681  0.0620 -0.2965 -0.2469
    1W        W37332   4.159  11.221   1.195 -0.1048 -0.1205  0.3912
    1W        W37333  23.095   6.102   7.416  0.0849 -0.1387 -0.1933
    1W        W37334   6.870  29.344   2.525  0.0366  0.0263  0.6306
    1W        W37335  29.997   1.543   1.190  0.1009  0.1428  0.0338
    1W        W37336  18.162   4.495   0.528 -0.2013 -0.1273 -0.4135
    1W        W37337  10.127  22.731   7.688 -0.4834  0.1751 -0.0077
    1W        W37338   6.292   2.800   1.936 -0.0304 -0.0624 -0.2834
    1W        W37339  16.267  27.240   8.836  0.2882 -0.2650 -0.0794
    1W        W37340   1.940   7.227   0.429  0.1442 -0.2019 -0.1257
    1W        W37341  24.973   1.527   2.605  0.0995 -0.1407  0.2400
    1W        W37342  25.657   8.836   6.687 -0.1837  0.2232  0.2556
    1W        W37343  14.809  14.241   2.228 -0.2428  0.0960  0.1447
    1W        W37344  14.827  25.378   2.917 -0.1679  0.0369 -0.2351
    1W        W37345   2.428  10.424   9.097 -0.0150 -0.4375  0.0187
    1W        W37346   3.658  15.018   7.547 -0.2149  0.1844  0.0922
    1W        W37347  29.568  20.488   7.375 -0.0852  0.1535  0.1703
    1W        W37348  10.371  23.637   7.834  0.2216 -0.0581 -0.1881
    1W        W37349  22.904  26.246   9.015  0.2597 -0.1097  0.1242
    1W        W37350  26.970   1.336   8.030  0.1718  0.1067 -0.0488
    1W        W37351  29.661   8.067   1.524 -0.1806 -0.0536  0.2744
    1W        W37352  25.472  18.792   7.469  0.0533  0.0395  0.1643
    1W        W37353  15.200  23.275   7.564 -0.0827  0.1679  0.1421
    1W        W37354   7.619   6.365   7.535  0.3498  0.1905 -0.2400
    1W        W37355  11.418   5.168   0.874 -0.1079  0.1091 -0.0190
    1W        W37356  19.460   1.852   6.946  0.1289  0.0950  0.3143
    1W        W37357  10.125   6.210   1.209 -0.0624 -0.0398  0.0207
    1W        W37358  13.877  24.758   8.986 -0.0310 -0.3200  0.2149
    1W        W37359   2.052  12.008   7.467 -0.3059 -0.0737  0.0290
    1W        W37360  11.604  17.876   8.475  0.0925  0.1047  0.0324
    1W        W37361   4.077  13.689   9.033  0.1859  0.1256 -0.4236
    1W        W37362  26.318  16.761   0.565  0.1663  0.1927  0.1372
    1W        W37363  26.138  13.330   0.751 -0.0286  0.0321 -0.1033
    1W        W37364   3.228  13.664   7.018  0.2785 -0.2243 -0.0374
    1W        W37365   4.130   6.689   8.994  0.2234  0.1529 -0.0066
    1W        W37366  11.618  18.881   6.574  0.2459 -0.1566  0.0508
    1W        W37367  10.438  23.207   2.581  0.0237  0.1751  0.0487
    1W        W37368  28.691  14.719   8.967 -0.1037  0.2723 -0.0266
    1W        W37369  20.761   8.898   2.129 -0.1324 -0.0299  0.2269
    1W        W37370  21.684   3.799   8.206 -0.0727 -0.2165 -0.1846
    1W        W37371  11.109  29.225   2.759  0.0209 -0.0293  0.1028
    1W        W37372  19.019  11.551   7.660 -0.0127  0.1320 -0.3708
    1W        W37373  16.305  17.472   8.558 -0.0647  0.2255  0.1074
    1W        W37374  15.710  17.069   1.504 -0.0665 -0.1209  0.2390
    1W        W37375  26.625   9.575   8.840  0.2857  0.0250 -0.0157
    1W        W37376   7.868  16.444   1.410 -0.0599 -0.2200  0.3338
    1W        W37377  24.900  24.536   8.977 -0.1010 -0.0029 -0.0198
    1W        W37378  19.752  27.942   2.286 -0.1903  0.2039  0.2541
    1W        W37379   1.618  21.046   9.066  0.4157  0.2434  0.1402
    1W        W37380  11.670   8.278   8.764  0.1676  0.0830  0.0493
    1W        W37381  19.119  10.229   7.033 -0.1475 -0.1086 -0.1987
    1W        W37382  28.619  28.806   3.743  0.1476  0.0405  0.5852
    1W        W37383  19.730  27.168   7.278  0.0263 -0.2197  0.3376
    1W        W37384   1.558  17.109   7.192 -0.2682 -0.2062 -0.0414
    1W        W37385  13.131  19.944   7.060  0.1499  0.2048 -0.2711
    1W        W37386  17.053   7.699   1.782 -0.1016  0.1337 -0.1177
    1W        W37387   8.886  14.197   7.557 -0.0104 -0.1301  0.0792
    1W        W37388   5.921  10.259   1.548 -0.1354 -0.1500 -0.0525
    1W        W37389  22.160  12.498   5.665  0.0655 -0.3246 -0.2224
    1W        W37390  22.866   8.409   8.305  0.4636  0.2421  0.0965
    1W        W37391   6.970   0.902   2.776 -0.1764 -0.2402  0.1048
    1W        W37392  11.826   0.135   2.145  0.1011  0.2744 -0.2027
    1W        W37393   3.937   2.163   2.923  0.2360  0.1180  0.2634
    1W        W37394  13.869  23.291   7.066 -0.0443  0.1312  0.0108
    1W        W37395  11.990  16.496   8.519 -0.1034  0.1930 -0.0481
    1W        W37396  24.826   5.588   0.758 -0.0821  0.1694  0.0217
    1W        W37397  23.870  14.347   7.819 -0.0069  0.1181  0.0312
    1W        W37398  10.847   1.033   8.804 -0.2955 -0.0052 -0.3621
    1W        W37399   0.654  27.560   2.511 -0.0692 -0.0019  0.1069
    1W        W37400  22.141  23.265   0.295 -0.0427  0.1412  0.2522
    1W        W37401   6.064  26.542   1.218  0.2564 -0.2321 -0.0687
    1W        W37402  22.681   2.062   1.952  0.1740 -0.0203 -0.3598
    1W        W37403   1.532   3.105   0.652 -0.0273  0.1052 -0.0166
    1W        W37404   6.685   8.033   2.625 -0.2032  0.3518  0.1705
    1W        W37405  25.305  11.327   8.733 -0.0322  0.4395 -0.0529
    1W        W37406  10.199  26.804   6.060 -0.1197 -0.1645 -0.0822
    1W        W37407   8.175  14.667   6.634 -0.1984 -0.4917 -0.0474
    1W        W37408  20.092  30.097   8.201 -0.0813 -0.2785 -0.0165
    1W        W37409  21.642  15.974   6.226 -0.1939 -0.2525  0.0295
    1W        W37410   8.088  26.206   9.000 -0.0372 -0.0849  0.1370
    1W        W37411   9.577  28.768   7.481  0.0849 -0.0224  0.0362
    1W        W37412   7.110  20.739   5.772 -0.1053 -0.1836 -0.3240
    1W        W37413  14.298   9.381   2.195  0.0872  0.0771 -0.0486
    1W        W37414   8.538   8.688   7.256  0.0358  0.1475  0.1284
    1W        W37415   7.282  21.594   6.400  0.0162  0.0875  0.0260
    1W        W37416  14.666  21.871   8.400  0.2864 -0.1775  0.0304
    1W        W37417  25.690  19.706   8.531 -0.0564 -0.1803 -0.0195
    1W        W37418   7.704  23.585   9.052 -0.1528 -0.2568 -0.0373
    1W        W37419  26.338   3.566   7.626 -0.1078 -0.0264 -0.1039
    1W        W37420  24.414  25.559   0.460 -0.0219 -0.1263 -0.1376
    1W        W37421  18.723  26.416   8.001 -0.3642  0.0858 -0.2417
    1W        W37422  19.215  20.199   0.222 -0.0563 -0.0273 -0.0093
    1W        W37423  18.837  19.526   6.774 -0.1886 -0.2150  0.0694
    1W        W37424  13.790  16.462   8.394  0.1497  0.1736 -0.1737
    1W        W37425  24.009   3.350   8.312  0.2081 -0.1034  0.2574
    1W        W37426  11.911   1.973   5.916 -0.0406  0.1540  0.0629
    1W        W37427   7.895   8.836   7.337 -0.2600  0.2018  0.1644
    1W        W37428  25.214   9.465   1.066  0.2555  0.1868  0.1502
    1W        W37429  13.851  24.185   6.614  0.0157 -0.0952 -0.2776
    1W        W37430  17.194   9.695   6.540  0.1771 -0.1669  0.2307
    1W        W37431  27.752  29.635   1.018  0.0960 -0.0386  0.2210
    1W        W37432  15.360  15.215   8.458 -0.0782  0.1894 -0.1168
    1W        W37433   4.527  17.875   6.315 -0.6173  0.0626 -0.0137
    1W        W37434  16.791  30.327   8.100  0.0402  0.2186  0.2326
    1W        W37435  26.511  13.439   2.562 -0.0925 -0.1708 -0.2097
    1W        W37436   8.865  29.620   6.810 -0.1002 -0.0139 -0.0523
    1W        W37437  10.231  30.155   1.934 -0.1164 -0.1079  0.2357
    1W        W37438  21.417  13.245   8.631 -0.1306 -0.2780  0.1552
    1W        W37439  19.657   9.244   7.956 -0.0816  0.3295  0.1689
    1W        W37440  17.451   1.518   5.643  0.0531 -0.0423 -0.0860
    1W        W37441   4.388   1.493   0.520 -0.2771  0.0012  0.0977
    1W        W37442  23.329  18.884   8.828 -0.0794 -0.0622 -0.0485
    1W        W37443  17.764  26.455   7.839 -0.2096 -0.2649  0.0201
    1W        W37444   1.503  17.041   6.642 -0.3274  0.0618 -0.2270
    1W        W37445   8.744  14.627   1.415  0.1429 -0.1153  0.2100
    1W        W37446  21.966  24.921   9.119  0.1739  0.0330  0.1987
    1W        W37447   3.166   2.231   8.729 -0.1314 -0.1791 -0.1990
    1W        W37448   8.359   4.976   1.264  0.0869 -0.2230  0.2259
    1W        W37449  29.930   5.223   1.692 -0.2173 -0.1116  0.1016
    1W        W37450   0.206  13.862   8.657  0.0469 -0.2849  0.0976
    1W        W37451  26.690  15.625   6.204 -0.1372 -0.1014 -0.4198
    1W        W37452  19.310  23.728   0.089  0.1468 -0.0964  0.2577
    1W        W37453   9.884  11.601   6.904 -0.1379  0.1453 -0.0866
    1W        W37454   9.483  11.376   6.618 -0.2417  0.2727  0.1283
    1W        W37455  17.708   3.775   0.413 -0.1229 -0.2632 -0.3124
    1W        W37456  25.768  13.148   8.870  0.1146 -0.1277 -0.1238
    1W        W37457  24.645  28.230   0.759 -0.2080  0.2693 -0.1179
    1W        W37458  14.688  24.504   0.554  0.0237  0.2107 -0.0208
    1W        W37459  20.986   6.168   2.347  0.2941 -0.2743 -0.2068
    1W        W37460   3.092   5.835   0.470 -0.0181 -0.3148  0.2151
    1W        W37461  19.689  29.621   8.159  0.0995 -0.0080 -0.0565
    1W        W37462   3.373   3.196   3.360  0.0727 -0.2643 -0.4517
    1W        W37463  26.099   8.859   9.181 -0.0277  0.0173 -0.1197
    1W        W37464   7.916  27.579   6.672  0.1294 -0.1036 -0.2356
    1W        W37465  22.445  27.593   0.845 -0.0621 -0.1682 -0.2196
    1W        W37466  13.276  14.376   3.324 -0.5397 -0.2111  0.0484
    1W        W37467   1.593  14.931   7.794  0.1292 -0.1396  0.0377
    1W        W37468  23.583  23.269   0.844 -0.0348  0.0829  0.1982
    1W        W37469  23.859  16.463   7.660  0.1645 -0.2422  0.0836
    1W        W37470   7.604  14.637   2.345 -0.1347  0.0063  0.2131
    1W        W37471  18.074   3.585   7.111  0.0744  0.2074 -0.1555
    1W        W37472  23.781   8.542   7.994 -0.0625  0.0780 -0.0156
    1W        W37473  21.768  13.729   2.095 -0.0086 -0.1110 -0.0269
    1W        W37474  24.316  19.371   8.480 -0.0164 -0.2918  0.1196
    1W        W37475  29.147  30.179   0.621  0.2149 -0.0174 -0.1450
    1W        W37476  21.342  19.349   6.204  0.1400  0.0958 -0.1104
    1W        W37477  23.399   0.786   3.084  0.3215 -0.1089 -0.2318
    1W        W37478  13.833  14.343   4.013  0.2391 -0.1352  0.2099
    1W        W37479   9.096   9.876   7.265  0.1803  0.2713 -0.1262
    1W        W37480  14.034  22.561   8.747  0.0141  0.0797  0.0955
    1W        W37481   3.774  28.966   2.186 -0.2775  0.1044  0.0605
    1W        W37482   8.170  15.794   0.301 -0.0408  0.1958  0.1974
    1W        W37483  18.911  26.066   7.698  0.2275  0.0258 -0.3472
    1W        W37484  14.176  17.993   2.662  0.0413 -0.0024 -0.0472
    1W        W37485   3.023  28.769   1.214  0.3294 -0.0528  0.0953
    1W        W37486  11.672  18.352   8.696  0.0940  0.0793  0.0421
    1W        W37487  25.406  20.221   0.146  0.2730  0.0948 -0.1102
    1W        W37488  18.122   6.231   1.182 -0.0137 -0.3602 -0.0277
    1W        W37489  22.433   0.746   1.597 -0.2892  0.0727  0.0189
    1W        W37490  11.936  12.156   1.770  0.1821 -0.0418 -0.2410
    1W        W37491  26.346  19.079   0.633 -0.1122 -0.0800  0.2209
    1W        W37492   6.898   4.953   2.154  0.0733  0.1081 -0.1282
    1W        W37493  27.834  23.207   1.594  0.0597  0.0841  0.0881
    1W        W37494   2.351  16.282   7.511 -0.1404  0.2386  0.0672
    1W        W37495  14.165  11.386   8.449 -0.2912 -0.1563  0.0488
    1W        W37496   3.210  23.759   7.818 -0.4771  0.2163  0.0978
    1W        W37497  21.691  22.235   7.933 -0.2928 -0.1738  0.2060
    1W        W37498   3.712  22.252   0.778 -0.2545 -0.0155  0.2141
    1W        W37499  22.844   7.264   9.226 -0.0192  0.2828 -0.1763
    1W        W37500  28.944  13.500   0.620 -0.1350  0.0508  0.0325
    1W        W37501   0.747   6.745   7.914  0.0342 -0.4941 -0.1086
    1W        W37502  25.485  20.172   0.712  0.0208 -0.0574  0.0272
    1W        W37503  15.866  26.531   7.988  0.0546 -0.1867 -0.2463
    1W        W37504  18.599  29.984   7.151  0.0159 -0.1583 -0.0816
    1W        W37505   5.083  15.649   7.044  0.3026  0.3168 -0.1288
    1W        W37506   6.861   6.156   7.143 -0.0626  0.1522  0.1566
    1W        W37507   6.377  21.369   0.867 -0.2411 -0.2538 -0.0037
    1W        W37508  18.975   4.996   0.966 -0.2256  0.1704  0.0612
    1W        W37509  23.173   6.874   8.418  0.4985 -0.2457 -0.1618
    1W        W37510  15.199  21.697   2.125 -0.1509 -0.0132 -0.3606
    1W        W37511  27.603   7.764   6.422  0.4545  0.0797 -0.0798
    1W        W37512  19.520  10.473   7.240  0.1784 -0.1141 -0.1625
    1W        W37513  23.363  10.022   0.108  0.1991  0.0194 -0.2142
    1W        W37514  18.922  14.643   1.488 -0.0316 -0.2802  0.0820
    1W        W37515  29.972  15.331   7.832 -0.0765  0.0393 -0.2965
    1W        W37516  28.349  21.344   1.802  0.1329  0.4140  0.0578
    1W        W37517  22.210   8.430   7.726  0.2714  0.1507 -0.0567
    1W        W37518  24.517  14.501   2.546  0.1923 -0.1950 -0.4322
    1W        W37519  21.659  19.151   8.866  0.0716 -0.3016  0.0130
    1W        W37520  24.344  13.477   1.709  0.1288 -0.1936 -0.0157
    1W        W37521   2.275  19.202   0.793 -0.1545  0.2073  0.0689
    1W        W37522  21.920   0.878   8.921 -0.1653  0.1206 -0.2480
    1W        W37523   7.201   8.741   1.029 -0.2204 -0.0780 -0.0330
    1W        W37524  24.985   4.906   2.210  0.0573 -0.1339 -0.1832
    1W        W37525  30.057   4.212   9.130  0.3485  0.0199 -0.1636
    1W        W37526  14.144  15.772   2.045 -0.0196  0.0802 -0.0558
    1W        W37527   2.017  11.861   0.906  0.2930 -0.0906 -0.1282
    1W        W37528   6.999  22.972   0.834 -0.0353 -0.0833 -0.1086
    1W        W37529  16.564  15.553   1.523 -0.1699  0.2411  0.0113
    1W        W37530  18.696  16.075   1.705  0.2305 -0.0772  0.2706
    1W        W37531  20.365   5.952   2.677  0.1927 -0.1097 -0.0886
    1W        W37532  17.504  29.870   1.929 -0.0910 -0.1404  0.1135
    1W        W37533   1.119  29.498   7.464  0.1442  0.1369 -0.2463
    1W        W37534  16.895   9.517   7.127 -0.0052  0.0714 -0.1763
    1W        W37535  17.839  22.029   2.318 -0.1114 -0.0176 -0.0829
    1W        W37536  15.679  21.090   8.546 -0.2138 -0.1146 -0.3713
    1W        W37537  12.927  29.067   1.143 -0.0263  0.1163  0.2097
    1W        W37538  20.861   7.193   2.425  0.2419  0.0561  0.1167
    1W        W37539   1.493  25.519   7.575  0.1336  0.1176 -0.0297
    1W        W37540  15.218   2.487   0.381 -0.2507  0.1046  0.0454
    1W        W37541  12.370   5.287   0.904 -0.0571 -0.1870 -0.1447
    1W        W37542  21.189  28.722   0.985 -0.0410  0.1714 -0.0513
    1W        W37543  20.743  27.488   8.384  0.0008 -0.0831 -0.3668
    1W        W37544  30.075   4.689   0.871  0.1458  0.4242  0.2722
    1W        W37545  29.370  28.766   3.143  0.3682 -0.4008  0.0194
    1W        W37546  15.685  24.672   1.688  0.1465 -0.1625 -0.0761
    1W        W37547  19.746  21.693   7.404  0.0143  0.1488 -0.0018
    1W        W37548  22.661   0.722   1.179 -0.1690 -0.2507  0.0194
    1W        W37549  23.105   7.038   7.471 -0.2003  0.0670  0.3277
    1W        W37550   6.600   1.600   2.512 -0.0664  0.4358 -0.0697
    1W        W37551  28.510  29.910   1.648  0.0280 -0.0348 -0.0507
    1W        W37552  20.023  19.822   8.007 -0.1525  0.1730  0.3374
    1W        W37553  19.705  18.263   7.080 -0.4396 -0.0112  0.1394
    1W        W37554  27.144  20.208   6.670 -0.0617 -0.0708 -0.1147
    1W        W37555   5.758   4.536   2.699 -0.0226 -0.2089 -0.1514
    1W        W37556  14.478  19.835   2.390 -0.3437  0.1819 -0.2472
    1W        W37557  20.439  29.312   2.739 -0.2048  0.0494 -0.1058
    1W        W37558   6.499  25.934   2.605 -0.0097  0.1860  0.2165
    1W        W37559   5.248  24.945   6.450  0.4242 -0.1020  0.0993
    1W        W37560  25.593  28.426   0.815 -0.1428  0.2163 -0.0201
    1W        W37561  24.487   0.115   1.412 -0.0614 -0.4928  0.0908
    1W        W37562  11.864  28.701   7.699  0.0253  0.0286 -0.0192
    1W        W37563  24.306  27.354   7.188  0.1217  0.2652  0.2136
    1W        W37564  30.238   0.901   3.346 -0.4866  0.0965  0.0656
    1W        W37565  29.196  15.877   2.453 -0.1392  0.1589 -0.1253
    1W        W37566  24.252  18.551   6.493  0.2945 -0.0282  0.0915
    1W        W37567  29.968  10.564   8.150 -0.1600 -0.4503  0.1507
    1W        W37568  18.203   7.883   9.208  0.0507 -0.0413  0.1159
    1W        W37569   0.905   6.933   9.017 -0.2042  0.0898 -0.1993
    1W        W37570  26.646  10.094   6.977 -0.0049  0.0282  0.0390
    1W        W37571   8.591   1.401   3.141  0.3883 -0.1743 -0.1435
    1W        W37572  23.804   8.307   9.259  0.0749  0.0075  0.2474
    1W        W37573  29.918   1.069   7.815  0.0212 -0.1067 -0.2338
    1W        W37574  13.210  23.345   9.240  0.0153  0.0867  0.1436
    1W        W37575  29.838   8.281   8.753 -0.2007  0.1100 -0.2323
    1W        W37576  30.295   1.066   0.620  0.1195  0.0420 -0.0282
    1W        W37577  24.046  29.646   8.832  0.2741  0.1339  0.1008
    1W        W37578  28.715  12.754   7.729  0.0947 -0.0472 -0.0799
    1W        W37579  15.380   6.647   7.245  0.0476  0.0241  0.4314
    1W        W37580  14.363  26.435   7.117  0.1748 -0.0624 -0.1256
    1W        W37581  29.630  29.788   2.724 -0.1532 -0.1274 -0.1285
    1W        W37582  19.421   6.405   6.850  0.4227 -0.2508  0.0972
    1W        W37583  18.414  14.468   7.564  0.1233 -0.2334  0.0495
    1W        W37584  14.076   4.563   2.310  0.0144 -0.0088  0.1123
    1W        W37585   8.225   5.318   3.338  0.1290  0.0050  0.3778
    1W        W37586  26.571  26.000   7.472 -0.0984  0.0400  0.1231
    1W        W37587  17.379  16.089   7.752 -0.0678 -0.1923 -0.2325
    1W        W37588  13.083   3.127   1.136  0.3312 -0.0737 -0.2471
    1W        W37589  15.710   0.086   2.441  0.3313 -0.0557  0.1081
    1W        W37590  13.978  29.810   3.379  0.0325  0.1937 -0.1385
    1W        W37591  25.775  15.503   7.318  0.5137  0.0880  0.1099
    1W        W37592  20.509   3.485   8.138  0.2441 -0.2077  0.0515
    1W        W37593   0.350  17.523   1.169  0.3836 -0.1714 -0.0166
    1W        W37594  16.136  23.704   8.355 -0.0234 -0.2018 -0.0684
    1W        W37595   6.238   2.695   8.347 -0.2842  0.1303  0.0028
    1W        W37596  20.534   4.609   8.728  0.2622 -0.1430 -0.2101
    1W        W37597   7.342  20.116   7.889 -0.2028  0.0381  0.1621
    1W        W37598  11.414  26.715   6.474 -0.0883  0.0261 -0.1641
    1W        W37599  30.154  27.155   2.912 -0.0059 -0.0210  0.0081
    1W        W37600  17.928  20.387   2.080 -0.2603 -0.1539  0.0631
    1W        W37601  28.479  21.462   7.191 -0.2300 -0.3741  0.2418
    1W        W37602   2.493   3.578   2.875 -0.0903 -0.2637  0.2202
    1W        W37603  16.503  11.600   8.588  0.0735 -0.2109  0.2106
    1W        W37604   4.068  23.344   8.645  0.1234 -0.4605 -0.2689
    1W        W37605  27.057   7.100   7.524 -0.0808 -0.0692  0.2272
    1W        W37606   4.135  27.771   8.502 -0.0472  0.0642 -0.0292
    1W        W37607  13.868  27.138   2.451 -0.0915  0.2554 -0.2225
    1W        W37608  22.705  27.226   7.430 -0.0735 -0.1623  0.0510
    1W        W37609  14.352   2.856   1.429 -0.0080 -0.2239 -0.0185
    1W        W37610  13.951  28.425   7.943  0.2023  0.1612 -0.3614
    1W        W37611   8.811  26.220   2.363 -0.2317  0.3252  0.0604
    1W        W37612  11.322   0.255   6.783 -0.0043  0.3842 -0.1035
    1W        W37613  22.977   3.022   7.619  0.3410 -0.2028  0.1008
    1W        W37614  11.448   3.657   8.300  0.0946 -0.3362  0.0426
    1W        W37615  29.482   4.836   6.881 -0.4262  0.0282 -0.3659
    1W        W37616  14.813   3.397   0.828  0.0644  0.1611  0.1687
    1W        W37617  11.833  24.295   7.226  0.0819  0.0059 -0.2197
    1W        W37618  27.893  16.001   1.096 -0.1157  0.1421  0.0998
    1W        W37619   0.913  19.185   1.727 -0.0116  0.1709  0.2251
    1W        W37620   6.353   9.520   7.085 -0.0199 -0.0184 -0.0136
    1W        W37621  19.712   6.532   8.497 -0.2147  0.2416 -0.1804
    1W        W37622  12.187   9.635   2.907 -0.4030 -0.2584 -0.3016
    1W        W37623   7.372   5.930   7.303 -0.0425  0.0404 -0.1645
    1W        W37624  21.718  25.686   3.322  0.0366  0.0574 -0.1258
    1W        W37625   3.298   6.161   0.795 -0.3435 -0.2449  0.1470
    1W        W37626   8.315   1.404   2.286 -0.2867 -0.0211 -0.3568
    1W        W37627  27.711  29.435   0.027  0.1147 -0.0306  0.0034
    1W        W37628   6.102  14.434   8.315 -0.0799  0.1470 -0.2857
    1W        W37629  19.038   6.982   8.074 -0.2674  0.2919 -0.1548
    1W        W37630   3.593   1.103   7.329 -0.1858 -0.1213  0.2013
    1W        W37631  14.644  29.021   7.926  0.1881  0.0968  0.1861
    1W        W37632  16.209  19.016   2.275  0.2924 -0.0368  0.3602
    1W        W37633  23.098   3.670   6.714 -0.1016 -0.0820  0.0559
    1W        W37634  28.298  25.810   8.276 -0.2208  0.1926 -0.1740
    1W        W37635  24.035  22.690   2.840  0.1267 -0.0952  0.3582
    1W        W37636  29.364   9.512   8.505 -0.0691  0.1907  0.0439
    1W        W37637  28.211  29.870   8.848  0.2000  0.0574 -0.2597
    1W        W37638  25.762  11.707   6.905  0.1451  0.1483 -0.1199
    1W        W37639  10.597   9.672   1.690 -0.0714  0.0429 -0.2371
    1W        W37640  21.173   4.980   3.476 -0.1029  0.0514 -0.0619
    1W        W37641  13.503   6.836   2.549 -0.3141  0.0624  0.1126
    1W        W37642  29.458   2.343   1.198  0.0786 -0.4649  0.1110
    1W        W37643  14.342   3.994   8.703 -0.1694 -0.2490 -0.1289
    1W        W37644  16.234  19.021   6.337  0.2916  0.0735  0.3213
    1W        W37645  13.625   9.854   7.491 -0.1149 -0.0194  0.2084
    1W        W37646  19.868  19.046   5.401  0.1753  0.2739 -0.1057
    1W        W37647  18.063   0.188   0.269 -0.3106 -0.0009  0.0227
    1W        W37648  27.693   9.776   8.653  0.1433  0.0622  0.0451
    1W        W37649  10.577  14.638   0.431  0.1255 -0.1802  0.5334
    1W        W37650   9.394  29.065   1.201  0.2673 -0.4029 -0.0912
    1W        W37651  19.751  28.805   2.128 -0.0095 -0.0799 -0.0478
    1W        W37652  19.079  26.964   9.193 -0.3106 -0.0018  0.0244
    1W        W37653  21.995   9.368   1.305  0.1661  0.0072  0.1079
    1W        W37654   9.770  23.620   6.873  0.0848  0.1787 -0.0586
    1W        W37655   2.874  27.350   8.951 -0.0405  0.0101  0.1347
    1W        W37656   3.945  25.622   7.846  0.1654 -0.3026  0.2457
    1W        W37657  22.750  20.768   8.180 -0.0574  0.0361  0.1329
    1W        W37658   7.907  11.894   1.311 -0.1436  0.2258 -0.0982
    1W        W37659  14.249  21.742   2.606  0.2040 -0.1591  0.1334
    1W        W37660   0.905  16.189   0.189 -0.0158 -0.0376 -0.0281
    1W        W37661   3.652  23.990   7.763  0.4033 -0.1401 -0.0407
    1W        W37662  18.370   6.878   0.636  0.1284 -0.2334 -0.2111
    1W        W37663   5.656   1.997   3.599 -0.3375  0.1338 -0.1674
    1W        W37664  29.710  10.701   0.526 -0.3140  0.1757 -0.2308
    1W        W37665  27.847   0.330   1.742 -0.2112  0.1628 -0.1370
    1W        W37666  24.429   6.563   7.283  0.1506  0.2339  0.0358
    1W        W37667   5.363  17.876   8.540  0.1573  0.0203  0.0235
    1W        W37668  20.718  10.200   6.626  0.0784 -0.1162 -0.2061
    1W        W37669   1.247   8.573   9.098  0.0367 -0.0088 -0.0347
    1W        W37670  15.438   5.008   7.464  0.1068  0.3036 -0.1311
    1W        W37671  15.817  13.648   9.148  0.3406  0.0833  0.2657
    1W        W37672  26.131  24.209   7.905 -0.1736  0.3257 -0.0714
    1W        W37673   0.684  25.806   1.158 -0.1890 -0.2221 -0.0305
    1W        W37674  19.679  29.622   1.675  0.0261 -0.1460  0.0684
    1W        W37675   1.166   6.927   7.146 -0.1397 -0.2293 -0.3321
    1W        W37676  13.912  18.345   2.360 -0.0228  0.3097 -0.1949
    1W        W37677   4.942   4.881   2.263 -0.1620  0.1329  0.0414
    1W        W37678  15.422  22.380   1.863  0.1918 -0.2950  0.0211
    1W        W37679   0.590   8.746   1.423 -0.0271  0.0743  0.1705
    1W        W37680  12.765  18.445   1.330 -0.1089  0.4474 -0.0798
    1W        W37681  12.616   7.822   6.752  0.1261  0.0724 -0.0680
    1W        W37682  28.692   0.121   1.715  0.0417  0.0294  0.2048
    1W        W37683  16.255  29.819   1.363 -0.0476 -0.1240 -0.0369
    1W        W37684   3.398  10.749   1.750 -0.4205 -0.0804  0.0635
    1W        W37685  10.702   4.749   8.084 -0.5168 -0.1390  0.0722
    1W        W37686  26.734   2.377   7.472  0.3330  0.0415 -0.2192
    1W        W37687  15.929  15.475   8.537 -0.2272  0.2344 -0.2308
    1W        W37688  21.552   6.380   8.996 -0.0413 -0.2537  0.4567
    1W        W37689  15.415  17.703   6.782 -0.0342  0.4352 -0.0815
    1W        W37690   0.935  12.414   6.582  0.0798 -0.4220 -0.0262
    1W        W37691   9.106   8.247   2.025 -0.0326  0.4088  0.1825
    1W        W37692  15.234  29.332   0.679 -0.4068  0.1427  0.3319
    1W        W37693  11.812  20.131   7.867 -0.2543  0.0782  0.0686
    1W        W37694   1.371   4.462   1.128 -0.2351 -0.2913  0.0329
    1W        W37695  21.255   9.234   6.980  0.3310 -0.2009 -0.0726
    1W        W37696   3.148  15.152   0.444 -0.0221  0.0644  0.1864
    1W        W37697  16.251   2.216   2.624  0.2696 -0.0245 -0.0046
    1W        W37698   0.225  23.238   8.984  0.2400  0.3955 -0.1475
    1W        W37699  16.803  15.971   0.624  0.4003 -0.4404  0.1081
    1W        W37700  22.370   8.936   6.530 -0.1427  0.0992  0.1325
    1W        W37701  27.446  21.064   0.406  0.0364 -0.0798 -0.0011
    1W        W37702   1.145  13.148   0.528 -0.0957  0.1186  0.0521
    1W        W37703  15.101  20.482   7.204 -0.2091 -0.0228  0.1903
    1W        W37704  10.426  19.379   5.918 -0.0293  0.1322 -0.3172
    1W        W37705  23.783  15.056   0.082 -0.1222 -0.2203 -0.3449
    1W        W37706  29.707  19.521   7.113 -0.0877  0.0242  0.1799
    1W        W37707   7.534  27.249   8.246  0.3835  0.0361  0.0213
    1W        W37708  21.621  10.557   0.110  0.0152 -0.0269 -0.0364
    1W        W37709  28.752  18.280   8.642 -0.0350 -0.0841 -0.0750
    1W        W37710  14.593   7.168   7.699 -0.0419 -0.2505 -0.1063
    1W        W37711  22.151  29.556   7.842  0.0899 -0.0263  0.0956
    1W        W37712   5.935  30.251   0.611  0.0759  0.0543 -0.1200
    1W        W37713  20.788  29.608   0.062  0.1453 -0.0517 -0.3347
    1W        W37714  21.708  18.116   8.676  0.0618  0.0050  0.1485
    1W        W37715   3.688  11.350   6.801 -0.3924 -0.5546 -0.1203
    1W        W37716  25.331  12.380   8.631  0.1304  0.2101  0.0389
    1W        W37717  27.955  23.934   2.251  0.0877 -0.3809 -0.0163
    1W        W37718  12.476   6.606   3.002 -0.1757  0.2827 -0.1141
    1W        W37719   6.621   8.692   1.059 -0.1279  0.2232  0.0232
    1W        W37720   2.568   1.691   1.478  0.3320  0.1456  0.2379
    1W        W37721  28.777  16.325   0.430 -0.0733  0.1572 -0.3581
    1W        W37722   8.982  20.180   9.140  0.1146 -0.1629  0.0840
    1W        W37723  13.236  13.146   2.735 -0.0927 -0.1527  0.0840
    1W        W37724  26.641   3.514   3.230  0.1444  0.1052 -0.1989
    1W        W37725  24.991   3.742   3.568  0.1963  0.3246  0.1822
    1W        W37726   6.392  20.012   8.352 -0.0132  0.2191  0.0497
    1W        W37727   7.770   5.673   2.622  0.2162  0.4430  0.5134
    1W        W37728   2.183  21.845   8.146  0.2885  0.0987 -0.0848
    1W        W37729  10.529   6.587   0.812 -0.0170 -0.2099  0.0613
    1W        W37730  18.353   0.761   6.618 -0.1381  0.1585  0.3149
    1W        W37731  29.104  29.529   9.264  0.3664 -0.3694  0.0719
    1W        W37732  11.769  13.469   2.189 -0.1842 -0.0125 -0.1686
    1W        W37733   6.548  21.708   7.859 -0.0326  0.1148  0.0378
    1W        W37734  26.384  23.820   6.927 -0.0672 -0.0080 -0.0587
    1W        W37735  16.576  27.999   8.396 -0.2047 -0.0096 -0.0091
    1W        W37736  12.203   6.036   7.949 -0.1859  0.1904  0.1588
    1W        W37737  29.486  14.809   7.332 -0.0480  0.3571  0.0957
    1W        W37738   8.502  16.804   9.156 -0.2668  0.0822  0.1750
    1W        W37739  12.358   3.748   8.055 -0.0369 -0.0688 -0.0650
    1W        W37740   0.196   2.423   0.589 -0.2444 -0.0869  0.1538
    1W        W37741  17.887  27.132   7.333  0.1246  0.0041 -0.1819
    1W        W37742  14.443   7.426   8.134  0.2409 -0.1549 -0.0448
    1W        W37743   0.973  14.179   8.106  0.1221  0.0750  0.1054
    1W        W37744   4.526  13.466   8.851  0.0921 -0.2831 -0.0925
    1W        W37745   3.477  27.729   3.231 -0.1916 -0.0170  0.2570
    1W        W37746   1.872  22.875   9.098 -0.1667 -0.3073  0.0154
    1W        W37747  26.505   3.356   8.751  0.0615  0.2846 -0.2887
    1W        W37748  18.270  22.687   7.747 -0.1757  0.1196 -0.3537
    1W        W37749  17.272   8.182   7.889  0.1834  0.0384  0.2141
    1W        W37750   7.495   7.299   2.269  0.0483 -0.0056  0.1240
    1W        W37751  20.913   3.039   9.127  0.0759 -0.0886  0.4830
    1W        W37752   6.518   4.278   8.987  0.1165  0.0479 -0.1789
    1W        W37753  22.205   0.454   7.483  0.2385  0.0902 -0.1689
    1W        W37754   6.021  23.560   2.061 -0.0283  0.0245 -0.2176
    1W        W37755   2.185  11.083   0.727  0.3170  0.1031  0.0583
    1W        W37756  21.739  10.253   0.814 -0.0179  0.1718  0.1141
    1W        W37757  30.194   2.786   3.260  0.1114 -0.3686  0.1143
    1W        W37758  29.814  26.622   0.466 -0.1849  0.0144  0.1557
    1W        W37759  18.300  11.928   8.979 -0.3311 -0.3146  0.2287
    1W        W37760  13.731   3.553   7.610  0.1657 -0.1074  0.1046
    1W        W37761  17.223  16.583   7.835  0.2493  0.1601 -0.0958
    1W        W37762  23.218  17.581   8.415 -0.1649  0.0113  0.1903
    1W        W37763  23.529  20.162   1.175 -0.1782  0.2339 -0.2104
    1W        W37764   8.678  12.032   2.281  0.0464  0.1535 -0.3927
    1W        W37765  17.364   2.317   1.693 -0.0027 -0.2265  0.1454
    1W        W37766   8.788   4.131   0.793  0.0276 -0.3368 -0.0672
    1W        W37767   9.832  14.407   2.345 -0.2986  0.4449 -0.2156
    1W        W37768   0.784  23.562   0.911 -0.0379  0.1018  0.0827
    1W        W37769  24.073   6.042   2.853  0.0474 -0.1016 -0.0816
    1W        W37770  28.243   1.927   3.528 -0.1004 -0.1542  0.2460
    1W        W37771  12.951   3.676   7.565 -0.0287  0.0814  0.4366
    1W        W37772   0.750  14.672   8.170  0.0009 -0.2107  0.1915
    1W        W37773  21.522   3.285   1.708 -0.2519 -0.0192  0.1814
    1W        W37774   9.752  13.180   1.099  0.2181 -0.3046  0.1554
    1W        W37775   3.377  11.623   8.676  0.1656  0.1337  0.0935
    1W        W37776   5.575  13.290   7.371  0.0664  0.1709 -0.1285
    1W        W37777  15.742  12.321   1.247  0.1969  0.1580  0.3549
    1W        W37778  21.816   0.063   1.229  0.0756  0.2656  0.1478
    1W        W37779  16.051  24.800   7.584  0.2575 -0.1200  0.0270
    1W        W37780  27.559  27.286   9.156  0.1302  0.2397 -0.0134
    1W        W37781   8.454   3.235   8.017 -0.1950  0.0072 -0.2612
    1W        W37782  26.257  21.551   6.781 -0.0667 -0.1954 -0.2681
    1W        W37783  16.309  29.814   8.026  0.1463  0.1327  0.0542
    1W        W37784  10.756   2.693   2.130  0.0101 -0.4575 -0.1616
    1W        W37785  13.715  20.659   1.366 -0.1708  0.0741 -0.2749
    1W        W37786   0.336  22.138   6.890  0.4777  0.3290 -0.1122
    1W        W37787  19.529  18.559   8.533  0.0532  0.1004 -0.0468
    1W        W37788  12.627  22.535   6.253 -0.0772 -0.0275 -0.1078
    1W        W37789  22.996  10.379   8.781 -0.1053  0.0431  0.1962
    1W        W37790   1.846   1.986   7.336 -0.2090 -0.0004  0.3538
    1W        W37791  26.312  16.271   8.122 -0.2012  0.0726 -0.2170
    1W        W37792  23.394   7.386   6.780 -0.0203 -0.1568  0.2159
    1W        W37793   1.146  26.212   8.219  0.1525  0.0799  0.0601
    1W        W37794  26.751   5.116   3.500 -0.0203  0.1684  0.4820
    1W        W37795   3.933   3.186   0.300 -0.0857  0.0388  0.1430
    1W        W37796   4.282   5.692   7.263 -0.1600 -0.0184  0.2619
    1W        W37797  17.215  18.162   8.222 -0.0116 -0.0862  0.0997
    1W        W37798  11.494  20.184   6.885 -0.2078 -0.0554 -0.0111
    1W        W37799  10.156   8.839   1.277 -0.4377  0.2879  0.0401
    1W        W37800  19.712  18.928   8.197  0.3243  0.2563 -0.0566
    1W        W37801  12.273   6.440   2.508  0.3018  0.0670  0.1725
    1W        W37802  11.885  24.220   2.672  0.2052 -0.1387 -0.0750
    1W        W37803  12.156   9.054   0.096  0.0685 -0.0485 -0.3403
    1W        W37804  25.171  15.665   6.234  0.1948 -0.1116  0.1708
    1W        W37805   5.761  30.273   9.081  0.2049  0.0184 -0.0266
    1W        W37806  12.616   6.314   1.713  0.0261  0.0180  0.1280
    1W        W37807  10.327   4.054   0.821  0.1068  0.1221  0.0638
    1W        W37808  14.939  26.113   1.776  0.2179 -0.0539 -0.0662
    1W        W37809  28.621   2.814   7.677 -0.1190  0.2348 -0.0603
    1W        W37810   3.219   6.908   7.381  0.2530 -0.0196 -0.1777
    1W        W37811   8.657  24.506   8.577 -0.1401 -0.3349  0.2630
    1W        W37812  16.325  27.586   0.464  0.1523  0.2419  0.1242
    1W        W37813  19.405  16.293   9.080 -0.0693 -0.0513 -0.2208
    1W        W37814   7.963  21.418   1.034  0.0211 -0.0476 -0.2431
    1W        W37815   5.711  19.039   8.929 -0.1812  0.1126 -0.0069
    1W        W37816  27.008  14.631   1.288 -0.0884  0.1611  0.4526
    1W        W37817   9.604  28.242   2.017 -0.1016  0.0295  0.1081
    1W        W37818  10.727  16.779   8.332  0.0876 -0.2527  0.1333
    1W        W37819   7.818  23.105   9.081  0.3399  0.2180 -0.1156
    1W        W37820  30.276  21.104   0.303 -0.1825 -0.1686  0.1496
    1W        W37821   5.765  14.231   1.661 -0.1951  0.0016 -0.0061
    1W        W37822   8.746   5.410   0.944 -0.0187  0.3000  0.1030
    1W        W37823  19.781  23.777   6.844 -0.0515 -0.1995 -0.0597
    1W        W37824   7.660   8.927   0.776  0.0390 -0.2199  0.2390
    1W        W37825  13.067   4.757   7.192 -0.1449 -0.1181 -0.1090
    1W        W37826  24.233  23.042   2.501 -0.1760  0.2459  0.1256
    1W        W37827   0.160  19.309   7.431 -0.2516  0.1060  0.1477
    1W        W37828  12.416   9.344   1.797 -0.2885  0.0377 -0.0812
    1W        W37829  10.446  17.854   6.885 -0.3857 -0.0348 -0.0165
    1W        W37830  21.613  16.215   6.634 -0.1830 -0.0334  0.0209
    1W        W37831  15.050  20.817   1.020  0.2089  0.0070 -0.2846
    1W        W37832  14.092  27.862   2.935 -0.3031  0.2672  0.0844
    1W        W37833  20.493   3.864   1.598 -0.0972 -0.1715  0.1776
    1W        W37834  29.990  29.101   7.746  0.0406 -0.3045  0.0829
    1W        W37835  10.416   3.907   8.201  0.4319  0.0380 -0.1031
    1W        W37836   7.791  26.072   6.771  0.1506 -0.1598 -0.0599
    1W        W37837  15.728   2.107   8.177 -0.1854 -0.0194  0.1103
    1W        W37838   7.406   4.802   0.189  0.1334 -0.0666 -0.0147
    1W        W37839  19.923   9.488   8.467 -0.0561 -0.1158 -0.0684
    1W        W37840   8.378   2.540   2.374 -0.0480  0.0054  0.0006
    1W        W37841   3.856  11.169   8.126 -0.0656  0.0487  0.2246
    1W        W37842  14.650   6.501   6.436 -0.0298  0.0502  0.1379
    1W        W37843  12.533  13.762   9.217 -0.2221  0.2719 -0.0028
    1W        W37844   0.722  15.125   0.551 -0.2494  0.0476  0.3048
    1W        W37845  30.334  30.348   0.383  0.0747  0.0633  0.0203
    1W        W37846   0.090  25.751   1.966 -0.0331 -0.2411 -0.0327
    1W        W37847  25.913  19.874   1.243  0.2722 -0.2643  0.3910
    1W        W37848  27.228  27.836   0.044  0.0054 -0.0939 -0.1482
    1W        W37849  24.531   8.721   6.236  0.1154 -0.0197  0.0889
    1W        W37850  25.813   3.351   2.517  0.0367 -0.0963  0.0279
    1W        W37851   8.285  11.728   7.103  0.1624  0.1010  0.1629
    1W        W37852  27.492  23.892   7.791  0.0327 -0.3002  0.0514
    1W        W37853  15.821  24.104   9.051 -0.2129 -0.1217  0.1615
    1W        W37854  11.819   4.787   1.295 -0.0384 -0.0392  0.3703
    1W        W37855   2.912  18.078   6.699  0.0562 -0.1796 -0.2116
    1W        W37856   5.066  16.750   6.181 -0.0008 -0.2185  0.0265
    1W        W37857   9.026  29.011   8.073 -0.1734  0.2626  0.0461
    1W        W37858  19.079  29.358   0.400 -0.0012  0.0646  0.2968
    1W        W37859   2.769  23.646   8.040  0.1808 -0.0343  0.1294
    1W        W37860  25.970   6.831   8.942 -0.0538 -0.4353  0.1319
    1W        W37861  16.080  17.030   8.682  0.0365 -0.0733  0.1792
    1W        W37862  26.810   1.315   1.826  0.0118  0.0764 -0.1418
    1W        W37863  14.762  14.725   1.190  0.3301  0.0396 -0.2071
    1W        W37864   9.189   2.637   2.767  0.2087 -0.0565 -0.0226
    1W        W37865  17.401  18.176   0.680  0.0738 -0.0426 -0.0276
    1W        W37866  11.645  20.683   6.121 -0.0420  0.1100 -0.0980
    1W        W37867  23.342  29.870   1.654 -0.0370 -0.1325  0.2654
    1W        W37868  28.266   0.498   7.133 -0.2208 -0.0869  0.0085
    1W        W37869  27.408  15.234   0.515 -0.0080 -0.0373  0.2720
    1W        W37870  14.209  12.464   1.964  0.0034  0.1920 -0.1334
    1W        W37871  19.282  12.808   0.151 -0.1071  0.2401  0.1023
    1W        W37872  17.151  18.514   1.724  0.2653  0.3847  0.1229
    1W        W37873   2.269   1.853   0.246  0.0341 -0.1838  0.1510
    1W        W37874  22.213   0.480   8.268  0.1657 -0.0013  0.1917
    1W        W37875   2.961  16.548   8.497  0.0130 -0.0516 -0.0665
    1W        W37876  28.978  18.782   6.028  0.0622 -0.3918  0.2663
    1W        W37877   6.314   1.382   0.129 -0.1272 -0.0023  0.0553
    1W        W37878   2.394   2.058   1.187  0.0164  0.2370  0.3790
    1W        W37879  18.225  24.731   1.764 -0.0790  0.0004  0.0004
    1W        W37880  12.938  25.125   2.573 -0.0757  0.3017 -0.1569
    1W        W37881  15.391  12.449   2.650  0.2359 -0.0227  0.0605
    1W        W37882   8.566  18.352   7.313  0.0961  0.2958 -0.1776
    1W        W37883   4.213   4.249   8.298  0.0066  0.2109  0.2354
    1W        W37884  12.426  11.534   0.397 -0.3247 -0.2779 -0.1140
    1W        W37885  20.508   6.933   8.772  0.2694  0.0940  0.2434
    1W        W37886  23.261  18.136   1.247 -0.0695  0.3384 -0.0909
    1W        W37887   5.619   8.006   7.742  0.0168 -0.1045 -0.1192
    1W        W37888  17.864   3.073   1.798  0.4278 -0.0382  0.1966
    1W        W37889  26.436  22.559   7.765 -0.0013  0.2841 -0.0627
    1W        W37890   3.847  15.161   6.358 -0.3374  0.0662  0.2838
    1W        W37891  26.612   9.746   0.185 -0.2859  0.2603  0.0432
    1W        W37892   6.571  10.202   0.218  0.1029 -0.1442 -0.0680
    1W        W37893   1.928   9.356   7.635 -0.0329 -0.0055  0.0311
    1W        W37894  21.416  26.640   1.986 -0.2189  0.1053 -0.0870
    1W        W37895  24.855  16.395   8.195 -0.2476 -0.2570 -0.2518
    1W        W37896  17.630   2.148   6.146 -0.0108  0.0339  0.1337
    1W        W37897  16.680   9.925   1.662  0.3965 -0.2186  0.1298
    1W        W37898  25.693  16.400   6.150  0.2592  0.1584  0.1463
    1W        W37899   5.187   5.629   2.794 -0.1511  0.2615 -0.2663
    1W        W37900   5.241  14.463   7.791  0.1809 -0.2082  0.1307
    1W        W37901   3.735  29.805   1.698  0.1499  0.1103 -0.4644
    1W        W37902  28.983  24.854   7.464 -0.1229  0.0173  0.0899
    1W        W37903   0.269  18.497   7.253  0.2708  0.3947  0.1503
    1W        W37904  21.425   5.628   0.067  0.2171 -0.2995 -0.2916
    1W        W37905  14.850   7.484   8.650  0.0999 -0.1496  0.2222
    1W        W37906  12.540  29.781   1.409  0.0292 -0.0366 -0.5036
    1W        W37907  12.350  24.897   8.677 -0.1576 -0.0538  0.0141
    1W        W37908   6.885   8.916   7.331 -0.2448  0.0113 -0.0651
    1W        W37909  11.822  25.295   1.710  0.0440  0.0095 -0.1415
    1W        W37910   1.267  18.875   8.949  0.0151  0.3425 -0.0527
    1W        W37911   7.975   1.242   8.663  0.0979  0.2205 -0.2342
    1W        W37912  26.502  30.212   8.236 -0.0242 -0.3038  0.1287
    1W        W37913  21.964  11.262   6.392  0.1887 -0.2612  0.2381
    1W        W37914  24.403   7.478   9.182  0.0327 -0.0140  0.1053
    1W        W37915  15.810   1.815   1.826  0.1800  0.0731  0.0479
    1W        W37916  15.677   3.259   0.683  0.0701  0.1899 -0.0122
    1W        W37917  23.184   8.217   6.517  0.2030 -0.0391  0.0535
    1W        W37918  17.800  22.825   8.260  0.0067 -0.1506  0.1409
    1W        W37919   1.163  21.466   7.961 -0.3104 -0.2669  0.3118
    1W        W37920   7.324  15.399   7.770 -0.1168  0.2159  0.1520
    1W        W37921  17.167   5.682   0.115 -0.2652 -0.0080  0.2346
    1W        W37922  13.290  21.611   0.752 -0.0015 -0.0377 -0.3325
    1W        W37923   2.971   5.616   8.562  0.2941 -0.0748  0.2943
    1W        W37924  24.864  15.635   1.735  0.2198  0.0318  0.0026
    1W        W37925   0.998  30.030   3.365 -0.0264 -0.2787 -0.0892
    1W        W37926   7.462  25.870   8.651 -0.0614 -0.1107 -0.1319
    1W        W37927   0.715   9.840   7.639  0.1540  0.0447  0.0122
    1W        W37928  14.047  27.251   1.176  0.3014  0.0016 -0.1112
    1W        W37929   8.471  23.185   6.569  0.1024  0.1945 -0.1918
    1W        W37930   4.609  26.560   8.474  0.4102 -0.0916  0.0756
    1W        W37931  17.570   3.431   7.113 -0.1063  0.1670  0.1764
    1W        W37932   9.483   3.150   7.113  0.1683  0.0972  0.6316
    1W        W37933   2.377  23.122   8.172 -0.1173  0.0143  0.0826
    1W        W37934   0.521  17.641   7.132 -0.1331  0.1535 -0.0333
    1W        W37935  16.720  27.686   8.913  0.0993 -0.0578 -0.0703
    1W        W37936  16.876   6.932   0.738 -0.0360  0.0011  0.1295
    1W        W37937  14.106   6.491   7.036  0.2104 -0.0292  0.0893
    1W        W37938  27.594   5.584   7.165 -0.0312  0.3025  0.0083
    1W        W37939  16.114  24.725   8.158  0.1387 -0.2418  0.2322
    1W        W37940   6.317   0.188   8.148 -0.0296  0.0485  0.1451
    1W        W37941  28.153  16.552   0.383 -0.0932  0.0281 -0.0099
    1W        W37942   0.580  25.877   0.592 -0.0832 -0.1649  0.2123
    1W        W37943   6.803  20.086   8.070  0.0169  0.0417 -0.2723
    1W        W37944  20.152  13.443   6.726 -0.1819 -0.1078 -0.0959
    1W        W37945  21.717   5.865   1.686  0.1162 -0.1168  0.1325
    1W        W37946  28.512  29.445   2.980 -0.0142 -0.0155 -0.1820
    1W        W37947  17.620  20.269   1.353  0.0605  0.1136 -0.0988
    1W        W37948  15.937   0.543   2.595 -0.1495  0.2511  0.0321
    1W        W37949  28.115   7.185   1.185  0.2152  0.1249 -0.2452
    1W        W37950  21.117  28.311   7.310 -0.1949  0.3672  0.0734
    1W        W37951   2.283  13.421   7.141  0.0817 -0.0311 -0.1909
    1W        W37952  28.930  27.659   0.600 -0.4397  0.0095 -0.0289
    1W        W37953  12.651  28.941   2.170  0.0934 -0.1522  0.0735
    1W        W37954   4.581  22.687   8.050 -0.1399 -0.2572  0.3696
    1W        W37955  15.177  20.745   2.538 -0.1419  0.2863  0.4783
    1W        W37956  21.756   3.855   2.412  0.2193 -0.0996 -0.2482
    1W        W37957  27.913   7.393   2.477 -0.0283 -0.3636  0.1233
    1W        W37958  10.195   9.429   2.565  0.0653  0.0744  0.1128
    1W        W37959  15.555  20.327   7.426 -0.0815  0.4951  0.0769
    1W        W37960   7.691  11.435   1.231  0.0176  0.0432  0.2056
    1W        W37961  13.938  11.621   1.479  0.2055 -0.5220 -0.0307
    1W        W37962   8.803   7.360   8.184  0.1196 -0.2211 -0.3315
    1W        W37963  19.932  29.711   0.720 -0.1519 -0.3152 -0.2857
    1W        W37964  12.444   6.924   8.790 -0.0793  0.3066 -0.0326
    1W        W37965   1.530  21.309   8.521  0.2209  0.1121 -0.0957
    1W        W37966   1.805  21.609   6.859  0.0236 -0.0775  0.1454
    1W        W37967  25.137  12.003   0.739 -0.3041 -0.1768 -0.0662
    1W        W37968  28.618  24.921   1.853 -0.0558 -0.1460 -0.0761
    1W        W37969  13.100  19.313   6.145 -0.1423  0.0450 -0.2075
    1W        W37970  13.130  30.128   2.991 -0.0329  0.3399 -0.0447
    1W        W37971  23.057  15.346   7.860  0.0803 -0.0864  0.1699
    1W        W37972   1.135  16.914   6.931 -0.0758  0.0031  0.0940
    1W        W37973  29.494  14.483   7.735  0.0579 -0.1149 -0.3401
    1W        W37974  15.981  23.354   0.431  0.0313  0.2847  0.1638
    1W        W37975   8.046   3.128   9.255 -0.3686  0.0606  0.1631
    1W        W37976  15.691  23.014   0.609  0.1332  0.0391  0.2181
    1W        W37977  28.484  17.265   0.598  0.1233  0.2204 -0.2277
    1W        W37978  18.295  30.274   3.285  0.1161 -0.0759  0.2145
    1W        W37979   1.667  28.321   4.000 -0.1862 -0.3493 -0.0572
    1W        W37980  24.852   4.690   8.648 -0.1623 -0.2526 -0.3861
    1W        W37981   2.679   6.573   7.262  0.1450  0.1718 -0.0187
    1W        W37982  10.120  15.031   1.058 -0.1617  0.0629  0.0700
    1W        W37983  23.015  30.335   8.397 -0.1294 -0.1549  0.1362
    1W        W37984  17.239   5.313   6.225  0.4423 -0.0707 -0.1666
    1W        W37985  18.203  26.226   2.403  0.1158 -0.1895 -0.1948
    1W        W37986  22.104  27.732   1.576 -0.0743  0.1806 -0.0669
    1W        W37987  28.560  23.064   8.406 -0.1603  0.0602  0.1991
    1W        W37988  24.202   8.336   8.274 -0.0475  0.0233  0.0632
    1W        W37989  29.377   4.025   1.037  0.0913  0.0311  0.3487
    1W        W37990   1.296  28.981   7.412 -0.1797  0.2101 -0.1479
    1W        W37991  25.099  12.523   6.211  0.1942  0.2635  0.0089
    1W        W37992  22.389  23.347   1.850  0.2809  0.1426  0.1830
    1W        W37993   3.940  24.394   8.056  0.0384 -0.1065  0.0782
    1W        W37994  18.847  11.590   1.786 -0.2728  0.0136  0.0420
    1W        W37995  13.066  25.162   6.759  0.0580  0.0843  0.3644
    1W        W37996  25.851  17.871   0.076 -0.0728 -0.1788 -0.0849
    1W        W37997  23.820  21.783   0.565  0.2043  0.1036  0.2288
    1W        W37998   5.799  21.281   7.878 -0.0803 -0.0174 -0.4806
    1W        W37999   1.411  14.009   7.930  0.2192 -0.0925 -0.1927
    1W        W38000  25.908   4.232   8.079 -0.0886 -0.4247 -0.0578
    1W        W38001  12.149  18.652   0.826 -0.1426 -0.1082 -0.0178
    1W        W38002   8.074   8.326   8.351  0.2155 -0.3404 -0.1139
    1W        W38003   6.095   6.960   2.398  0.0218  0.1834  0.1253
    1W        W38004  30.309  13.401   7.065  0.1000 -0.0821  0.3975
    1W        W38005  10.660  16.042   2.054 -0.2796 -0.4022  0.0669
    1W        W38006   0.437  29.664   1.388  0.0100 -0.1068  0.2032
    1W        W38007  12.639   9.752   3.738 -0.2352  0.1056 -0.3909
    1W        W38008   7.802   2.833   8.039  0.0748  0.0737 -0.1056
    1W        W38009   9.504  22.371   1.091 -0.1094  0.1466 -0.1294
    1W        W38010  23.823  10.590   1.237  0.1779 -0.0645  0.2239
    1W        W38011  11.335  23.162   1.663  0.0444 -0.1558 -0.0265
    1W        W38012   2.138  15.241   7.340  0.1229 -0.2044 -0.0559
    1W        W38013  13.850  19.245   2.466 -0.0464 -0.2065  0.2069
    1W        W38014  23.034  17.122   0.359  0.0835 -0.0269  0.1605
    1W        W38015   6.491   4.845   7.791  0.1979 -0.0451  0.1507
    1W        W38016   9.437  25.836   1.012 -0.2793 -0.3078 -0.0466
    1W        W38017  29.365  27.879   7.243 -0.0887  0.0354 -0.2091
    1W        W38018   6.374  17.155   7.237 -0.0416  0.1014 -0.1949
    1W        W38019  13.865  22.813   7.236  0.2754 -0.0929 -0.3787
    1W        W38020   4.234  15.133   7.611  0.0127 -0.1614 -0.1930
    1W        W38021  26.431  10.833   0.934  0.1143  0.0532 -0.2081
    1W        W38022  26.726   3.304   7.532 -0.4356  0.0887  0.0035
    1W        W38023   5.918  19.855   0.049  0.0137 -0.2510 -0.1088
    1W        W38024  13.530  11.206   7.670  0.3719  0.2417 -0.3710
    1W        W38025  22.009  30.043   6.994 -0.2305  0.0655  0.2135
    1W        W38026  19.831   6.068   8.750  0.0499  0.0917 -0.0488
    1W        W38027  21.328  27.891   7.132 -0.1074  0.0579  0.0244
    1W        W38028  12.841  16.332   0.247 -0.0248 -0.2449 -0.0066
    1W        W38029  27.075  27.040   9.054  0.3048 -0.2115  0.2544
    1W        W38030  22.171  25.948   2.355  0.3687  0.0510  0.0027
    1W        W38031  20.316   9.359   1.506  0.2962  0.1636  0.0544
    1W        W38032  25.537   6.332   2.485 -0.2834 -0.2067  0.0593
    1W        W38033  19.659  19.758   0.816 -0.2421 -0.1265 -0.1020
    1W        W38034   2.863  25.797   8.105  0.0382  0.2096 -0.1543
    1W        W38035   1.296  17.293   7.962  0.0424 -0.2478 -0.1908
    1W        W38036  18.546   3.559   6.895 -0.1074 -0.3535 -0.0336
    1W        W38037   8.751   0.548   1.635 -0.2854  0.1138  0.0988
    1W        W38038  26.225  11.910   8.815  0.1179  0.3049 -0.3346
    1W        W38039  19.803  20.777   2.018 -0.1586  0.0857  0.0098
    1W        W38040  15.475  10.674   6.285  0.0109  0.1751  0.2086
    1W        W38041  11.626  18.802   0.174  0.0251 -0.0958 -0.2535
    1W        W38042  20.008  24.735   8.198  0.1993  0.2230  0.3635
    1W        W38043   2.363   3.825   9.228  0.1045 -0.3234 -0.1895
    1W        W38044   7.585  20.621   0.639  0.1459 -0.1371  0.1801
    1W        W38045  18.366  17.912   8.755  0.1854 -0.0355  0.2008
    1W        W38046   1.606  15.759   8.154 -0.0059  0.0176 -0.0500
    1W        W38047  29.925   0.580   1.950 -0.0077  0.0018 -0.1973
    1W        W38048  10.618  12.864   0.296 -0.0365  0.0830  0.0313
    1W        W38049  21.262   9.492   0.984 -0.1939 -0.1194 -0.0991
    1W        W38050  20.566  18.806   6.030  0.0713  0.2306 -0.0301
    1W        W38051  14.774  23.051   1.879 -0.4239  0.2985 -0.0883
    1W        W38052  25.760  22.931   2.038  0.0994 -0.0919  0.1162
    1W        W38053  10.041   0.240   6.297  0.2435  0.1457 -0.2485
    1W        W38054  11.177  13.327   0.830  0.1817 -0.0404  0.0556
    1W        W38055  26.333  29.812   3.624  0.1862  0.2052  0.0978
    1W        W38056  20.672  27.654   2.642  0.1281  0.1377 -0.1743
    1W        W38057   9.933  17.546   6.342 -0.0291 -0.0745  0.2597
    1W        W38058  25.594  14.430   0.113 -0.3018 -0.2670 -0.1632
    1W        W38059  22.140  16.142   1.423 -0.2306  0.1277 -0.1198
    1W        W38060  29.018  10.155   7.965 -0.0777 -0.1145  0.0961
    1W        W38061  21.068   7.424   7.087  0.1700  0.0936 -0.2104
    1W        W38062  22.736   0.980   7.243  0.0956  0.0046 -0.0332
    1W        W38063  22.004   1.903   8.976 -0.1722 -0.1021 -0.3194
    1W        W38064   8.859   8.247   0.139  0.0997  0.3651  0.1291
    1W        W38065  12.188  15.163   0.853 -0.1890 -0.2811 -0.0245
    1W        W38066   4.723  16.483   0.005 -0.1513  0.0420 -0.1485
    1W        W38067  24.661   8.082   1.089 -0.0197 -0.2053 -0.1304
    1W        W38068   5.868  28.265   2.258 -0.2091  0.0445  0.3283
    1W        W38069  29.933  15.022   8.542 -0.3935 -0.1008  0.1107
    1W        W38070  16.302   2.820   7.045 -0.1427 -0.3725  0.1591
    1W        W38071   0.705  22.696   0.512 -0.0367  0.0936  0.1331
    1W        W38072   5.959  15.470   0.914  0.2036  0.0855  0.3564
    1W        W38073   5.607   0.093   1.114 -0.2099 -0.3000  0.1017
    1W        W38074  18.161   4.777   7.907  0.0857  0.0005  0.1510
    1W        W38075  24.423   3.062   0.205  0.0449 -0.2647 -0.0765
    1W        W38076  20.485  20.501   6.962 -0.1538  0.2549 -0.1272
    1W        W38077   8.912   0.970   8.447  0.0419 -0.0393 -0.1164
    1W        W38078  22.567  12.367   2.302  0.1834  0.0132 -0.0964
    1W        W38079  23.672  24.416   2.996  0.1757  0.0069  0.2235
    1W        W38080   1.390  18.157   7.517 -0.1570 -0.0693 -0.1082
    1W        W38081  14.356  24.093   6.812  0.2420  0.0063 -0.1886
    1W        W38082  13.833   1.659   0.733  0.4337 -0.0853  0.0875
    1W        W38083   0.522   4.334   8.957 -0.1011  0.0649 -0.2009
    1W        W38084  19.478  23.436   8.960 -0.0010  0.1609 -0.2014
    1W        W38085  12.406  29.652   2.892 -0.4511 -0.1412 -0.0005
    1W        W38086   5.684  26.741   0.970 -0.0264  0.1588 -0.0331
    1W        W38087  10.485  21.777   6.223  0.3356 -0.0438  0.1548
    1W        W38088  22.153  17.463   0.065 -0.0994  0.2054 -0.1191
    1W        W38089  20.992  26.521   8.055  0.0366  0.2923 -0.0102
    1W        W38090  16.413   4.433   3.141  0.2957  0.4009 -0.0147
    1W        W38091   0.107  14.162   0.255 -0.1102  0.0182  0.3413
    1W        W38092  25.577   2.612   0.147  0.0966 -0.1416 -0.1030
    1W        W38093  30.296  18.816   7.036 -0.1953 -0.1817 -0.2249
    1W        W38094  27.191  25.201   8.945 -0.0513 -0.1560  0.1277
    1W        W38095  20.996  10.400   0.893 -0.1068  0.4332 -0.1146
    1W        W38096  12.703  13.637   0.890 -0.0885  0.0238 -0.2174
    1W        W38097  23.159  18.786   1.508  0.2578 -0.3546 -0.2823
    1W        W38098  16.889  16.402   2.508  0.0082 -0.1669  0.0319
    1W        W38099  24.650  10.187   6.175  0.1684  0.2722 -0.1918
    1W        W38100  27.060   9.787   9.197 -0.1943 -0.2183 -0.1783
    1W        W38101  17.328  26.287   7.697  0.0741 -0.1059  0.1289
    1W        W38102  24.961   8.456   6.394  0.0788  0.1974  0.0575
    1W        W38103   5.412  27.349   7.915 -0.1033  0.0016  0.0299
    1W        W38104  23.280  30.273   1.898  0.1663 -0.0594 -0.0140
    1W        W38105  14.879   1.849   8.598  0.1496 -0.1285  0.0484
    1W        W38106   9.646  19.182   2.169  0.0240 -0.1204  0.1012
    1W        W38107  20.029  29.803   6.635 -0.1560 -0.1266  0.0430
    1W        W38108  12.381  29.499   7.930  0.0878 -0.2443  0.2081
    1W        W38109  24.051  20.137   0.967 -0.0471  0.1890 -0.1859
    1W        W38110  16.834   0.683   7.664 -0.2663  0.0365 -0.1125
    1W        W38111   7.487  17.922   1.303  0.3131  0.1631 -0.1834
    1W        W38112   6.584   4.045   1.844 -0.3055  0.0120 -0.2685
    1W        W38113  12.080  28.538   2.422  0.0605 -0.0158 -0.2467
    1W        W38114  27.463  24.934   1.568 -0.1459 -0.1311  0.5206
    1W        W38115   5.065   6.677   8.273 -0.0660 -0.4661 -0.3863
    1W        W38116  14.877  23.040   2.389 -0.2119  0.3770 -0.0218
    1W        W38117   2.516  28.658   2.539  0.1445 -0.1373  0.0971
    1W        W38118  30.263  10.660   0.658  0.1893 -0.0880 -0.1678
    1W        W38119  20.188  29.677   1.806 -0.0597 -0.3192 -0.2348
    1W        W38120  27.060  28.144   7.486  0.0771  0.0117  0.0042
    1W        W38121  17.442  22.978   1.516  0.0345 -0.0408 -0.1611
    1W        W38122  19.395  28.145   8.609  0.1719 -0.0658 -0.0536
    1W        W38123  20.862  21.686   7.772 -0.0424  0.0805 -0.0259
    1W        W38124  21.528  16.528   1.469 -0.1921  0.3028  0.0163
    1W        W38125  21.584  14.254   7.327 -0.1483 -0.0218 -0.2168
    1W        W38126  13.346  24.853   9.022 -0.4037 -0.1457  0.0448
    1W        W38127   4.848  10.667   7.471  0.0622  0.1275 -0.1672
    1W        W38128  11.984  15.385   1.820  0.0434  0.2815  0.0932
    1W        W38129   7.786  17.116   6.823  0.2268 -0.2070 -0.0780
    1W        W38130  14.677  29.300   0.635  0.0807 -0.2373 -0.0045
    1W        W38131  25.091  30.218   7.987  0.2918 -0.0794  0.2553
    1W        W38132  30.033  17.867   6.991  0.2510  0.0017  0.0770
    1W        W38133  27.407  23.499   5.998  0.0217  0.4306  0.3260
    1W        W38134  23.704  26.034   9.255  0.1315 -0.2612 -0.0076
    1W        W38135   2.457   1.939   8.095 -0.1436  0.2766 -0.0632
    1W        W38136  15.337  26.358   1.280  0.0693  0.2768 -0.0651
    1W        W38137  24.751  17.667   8.042  0.0691  0.1917 -0.0840
    1W        W38138  27.992  24.524   6.427  0.1462  0.1787 -0.2937
    1W        W38139  12.636   7.308   0.436  0.1149 -0.0734 -0.1825
    1W        W38140   5.804  29.974   1.034 -0.1272 -0.1821 -0.1306
    1W        W38141   7.175  11.851   6.168 -0.1266  0.1150  0.0196
    1W        W38142   9.407  11.840   6.863 -0.1440 -0.1455  0.0432
    1W        W38143  16.536   3.649   7.225 -0.1946 -0.1835  0.2730
    1W        W38144  22.009  21.507   7.227  0.0400 -0.1541 -0.0922
    1W        W38145  28.939  10.701   0.012  0.0764  0.1310 -0.0912
    1W        W38146  25.824   7.248   1.178 -0.1103  0.1000 -0.0849
    1W        W38147  18.631  29.257   2.082  0.0427  0.1107 -0.1251
    1W        W38148  21.612  11.467   0.361  0.0621 -0.0504 -0.1956
    1W        W38149  19.298  29.104   6.507  0.4529  0.4652  0.0099
    1W        W38150   2.533   5.544   2.637 -0.1703 -0.0514 -0.1935
    1W        W38151   4.029   8.459   7.803 -0.3105  0.1349  0.2372
    1W        W38152  14.473  21.039   1.042  0.0379  0.4378  0.0576
    1W        W38153   7.975  25.476   7.094 -0.2243 -0.0454  0.1749
    1W        W38154   2.753   6.429   2.252 -0.1692  0.1041  0.4532
    1W        W38155  29.582  12.952   7.407 -0.0316  0.0412  0.2008
    1W        W38156  26.910  16.488   7.188 -0.0259  0.1636 -0.0522
    1W        W38157  29.854   9.414   8.379  0.0818 -0.2445 -0.1389
    1W        W38158  27.052  12.363   8.434  0.2436  0.1412 -0.0580
    1W        W38159   2.338  21.621   0.735  0.0362 -0.1186  0.0097
    1W        W38160  10.007   6.730   1.127  0.1936  0.3089 -0.0040
    1W        W38161  27.054  21.298   0.294  0.0461  0.1036  0.1453
    1W        W38162  17.825  18.223   7.453  0.0257 -0.2285  0.0144
    1W        W38163  14.849  18.532   8.595  0.0042 -0.2073 -0.1763
    1W        W38164   4.858   4.242   3.028  0.2546 -0.0640 -0.2150
    1W        W38165   3.773   5.107   0.150  0.4979  0.0865  0.3367
    1W        W38166  27.197  15.690   6.174 -0.0287 -0.2880 -0.2239
    1W        W38167   8.179  23.966   1.524  0.2051  0.0519  0.2243
    1W        W38168  11.217  21.400   8.167 -0.3192 -0.1680  0.0156
    1W        W38169  26.985  25.362   7.384  0.4606  0.2013 -0.0726
    1W        W38170  13.876  28.889   8.452 -0.1228 -0.2223  0.0109
    1W        W38171   2.094  15.507   6.667  0.1053 -0.2677 -0.2104
    1W        W38172  26.301  27.434   9.223  0.1229  0.1263  0.1709
    1W        W38173   8.565   6.015   8.861 -0.0953  0.0437  0.0677
    1W        W38174   3.888  26.436   8.665  0.0639  0.0602  0.1605
    1W        W38175  19.475  17.862   0.401 -0.2097  0.2753 -0.0076
    1W        W38176  15.718  23.134   1.540  0.0300  0.1778  0.1752
    1W        W38177  26.748   6.546   8.781  0.2341  0.1965  0.2021
    1W        W38178   8.248  15.161   1.900  0.0908  0.0015 -0.0020
    1W        W38179  24.981   1.845   8.889 -0.0924 -0.0210  0.0012
    1W        W38180   3.053  27.538   0.712  0.0044 -0.0473  0.0430
    1W        W38181   2.854  27.260   1.110  0.3102 -0.0404 -0.0772
    1W        W38182  10.609   0.891   7.923  0.2936  0.0787  0.1962
    1W        W38183  13.655   1.787   6.096  0.1209 -0.1876 -0.2298
    1W        W38184   3.636  10.343   2.048 -0.3521  0.0256  0.3023
    1W        W38185  29.136  10.571   6.961 -0.1188 -0.3503  0.2726
    1W        W38186  28.444   6.643   2.386 -0.0784 -0.0703 -0.1656
    1W        W38187  21.415  25.391   1.405 -0.0680  0.1413  0.2207
    1W        W38188  30.215  21.336   7.302 -0.0612 -0.0200 -0.0276
    1W        W38189  23.805   2.894   8.294 -0.1022  0.0752  0.1222
    1W        W38190  18.858  14.823   2.152  0.1000  0.1531 -0.0993
    1W        W38191  29.294   5.395   8.729 -0.1203 -0.0616  0.1704
    1W        W38192  28.220  24.981   8.028  0.1481 -0.2124 -0.1432
    1W        W38193  20.112   8.344   7.932  0.0329  0.0582  0.2096
    1W        W38194  23.185  10.934   1.048 -0.2528 -0.0605 -0.3992
    1W        W38195  25.967  28.781   7.757  0.2875  0.1893  0.0255
    1W        W38196   0.941   1.243   0.256  0.0188  0.0162 -0.1712
    1W        W38197   9.590  25.259   8.318 -0.0613 -0.0017  0.0713
    1W        W38198  17.558   4.281   1.282 -0.0052 -0.1563  0.1494
    1W        W38199  10.712  12.184   2.692  0.0795 -0.1791  0.1273
    1W        W38200   6.790  17.311   6.486 -0.0950 -0.2386 -0.2099
    1W        W38201  25.622   6.263   7.670 -0.5146  0.0171 -0.0106
    1W        W38202  19.584  15.254   8.946 -0.3416 -0.0767  0.0412
    1W        W38203  20.121  17.592   6.251  0.1380 -0.3178  0.0408
    1W        W38204   5.351  18.177   9.009  0.0615 -0.1203  0.0468
    1W        W38205  14.996  27.938   2.699  0.0324 -0.2361 -0.1276
    1W        W38206  16.991  16.625   6.309  0.0333  0.0295  0.0515
    1W        W38207  11.980   9.989   0.682  0.1718  0.0793 -0.1256
    1W        W38208  23.424  22.119   6.266  0.2657 -0.0724  0.0030
    1W        W38209  12.245  13.173   1.205 -0.1609  0.2367  0.1207
    1W        W38210  24.341  15.379   6.565 -0.2660 -0.0840  0.2798
    1W        W38211  13.621  13.287   8.193  0.2214  0.1353 -0.2502
    1W        W38212  25.969  12.546   1.762  0.2276 -0.1385  0.0773
    1W        W38213  10.655   4.700   7.640  0.0687  0.0248 -0.0137
    1W        W38214   1.940   5.906   8.199  0.2689 -0.2094 -0.2193
    1W        W38215  16.252   8.588   9.065 -0.1231 -0.0956  0.0360
    1W        W38216   2.518   0.210   8.107 -0.0805  0.0259 -0.1885
    1W        W38217  15.712  21.469   9.129  0.1672 -0.1439 -0.1924
    1W        W38218  19.955   1.939   7.797  0.0487 -0.0517  0.4385
    1W        W38219  10.475  24.865   7.896  0.1718  0.1259 -0.1418
    1W        W38220  20.352  15.000   7.318  0.3561 -0.1580  0.3655
    1W        W38221  23.856   0.523   6.664 -0.1921  0.0546  0.2501
    1W        W38222  13.404   5.027   9.175  0.2799 -0.1069 -0.0803
    1W        W38223   8.261  23.293   7.025  0.3025  0.1870 -0.0395
    1W        W38224  29.805  24.504   1.441  0.1953  0.1322 -0.0309
    1W        W38225  22.089   6.769   2.708 -0.2235  0.0933 -0.1724
    1W        W38226  10.261   1.184   2.680 -0.2655  0.1969  0.0611
    1W        W38227   0.410  21.873   1.682  0.2055 -0.1574  0.2356
    1W        W38228  14.803  14.405   1.606 -0.1962 -0.0955  0.2136
    1W        W38229  22.684  24.450   8.871  0.0871  0.0446  0.1387
    1W        W38230  28.592  16.521   1.389 -0.2688  0.3683 -0.2258
    1W        W38231  16.906   6.800   1.752 -0.1427  0.0715 -0.0573
    1W        W38232  30.163   3.565   3.751  0.0591  0.1217 -0.4367
    1W        W38233  19.417  13.426   6.191 -0.1394  0.1598 -0.2609
    1W        W38234  25.062  10.907   7.172 -0.0042 -0.1706 -0.1433
    1W        W38235  22.646  25.103   6.532  0.2500  0.1291  0.2937
    1W        W38236   0.126  24.859   7.376 -0.0476 -0.0865  0.0432
    1W        W38237   2.776   5.924   2.205 -0.2304  0.2281 -0.0746
    1W        W38238   5.542   9.393   8.535  0.3527  0.1316  0.0812
    1W        W38239   6.353   8.462   2.004 -0.0614  0.0513 -0.4521
    1W        W38240  20.037  22.951   8.353  0.0938 -0.0409  0.0825
    1W        W38241  14.727  15.039   0.822  0.0232  0.0194  0.0970
    1W        W38242   4.822   2.332   2.541  0.1790  0.1183  0.0144
    1W        W38243  14.296  26.013   0.278  0.0803 -0.0222 -0.0181
    1W        W38244   4.565   5.844   8.168 -0.0908 -0.2566 -0.0782
    1W        W38245  27.604   2.734   3.695 -0.2606 -0.3333 -0.0866
    1W        W38246  19.814  10.440   6.811  0.2185 -0.0315 -0.0249
    1W        W38247   1.427  20.395   7.119 -0.1352 -0.1424  0.0424
    1W        W38248  22.646   7.988   6.487  0.1214  0.0576  0.0491
    1W        W38249  15.299   8.230   9.271  0.0370 -0.1657  0.0154
    1W        W38250  20.006  11.740   2.204 -0.1545 -0.1529 -0.2385
    1W        W38251  27.788  18.259   0.880  0.0074  0.0989  0.1342
    1W        W38252  13.742  19.888   7.895 -0.1534 -0.0731  0.1958
    1W        W38253  29.133   5.018   2.952  0.1379  0.1155 -0.0308
    1W        W38254   6.966  23.569   8.006 -0.0581  0.2813  0.0158
    1W        W38255  14.025   9.920   1.483 -0.0453  0.2231  0.1313
    1W        W38256   9.549  26.679   8.055  0.1009  0.2962  0.0301
    1W        W38257  22.406  22.312   8.556 -0.0184 -0.0609 -0.0050
    1W        W38258   3.402  20.920   1.164 -0.1352  0.2586 -0.0426
    1W        W38259   0.436   3.283   1.444 -0.1847  0.4079  0.2979
    1W        W38260   6.525  28.537   8.092 -0.1786 -0.1124 -0.2460
    1W        W38261  10.954  22.495   7.329  0.3249  0.3999 -0.2498
    1W        W38262   5.000  10.229   7.290 -0.1116 -0.0540  0.2038
    1W        W38263   5.874  24.666   0.533  0.0766  0.1340 -0.0890
    1W        W38264   1.572   7.724   2.716 -0.1675  0.0318  0.2387
    1W        W38265   3.395   3.451   2.248 -0.0451  0.1778  0.0469
    1W        W38266  14.787   9.619   1.981  0.3168  0.1228  0.2188
    1W        W38267   3.181  17.755   7.126  0.1730 -0.4943  0.2961
    1W        W38268  23.642  24.939   3.187 -0.0198  0.1197  0.1429
    1W        W38269  20.775  16.426   0.793  0.0428  0.0535 -0.1273
    1W        W38270   1.165  22.295   0.374 -0.0900 -0.1163  0.0444
    1W        W38271  11.277  29.649   0.585  0.0532 -0.1975 -0.3415
    1W        W38272   5.917  19.723   2.252 -0.0759 -0.1174  0.0193
    1W        W38273  17.291  13.810   0.169  0.0273  0.0743  0.0663
    1W        W38274   1.344  17.684   1.848  0.2727  0.0248  0.0567
    1W        W38275  20.921   4.754   8.492 -0.2306 -0.0028 -0.0476
    1W        W38276  27.329   9.460   1.769  0.1396 -0.1860  0.0459
    1W        W38277  27.982   2.073   7.685 -0.1652  0.0048 -0.0341
    1W        W38278  14.044  23.204   6.434  0.5081  0.1396  0.3507
    1W        W38279  18.917   1.260   7.438  0.0585 -0.0909  0.2978
    1W        W38280  15.645  27.121   0.323  0.0456 -0.0746 -0.1165
    1W        W38281   3.409  18.321   8.551 -0.0446 -0.0384 -0.1296
    1W        W38282  17.690   7.872   0.832 -0.0425  0.0331 -0.0718
    1W        W38283  21.918  25.864   7.418 -0.3005  0.1779  0.0750
    1W        W38284  12.645   9.348   3.005 -0.1095 -0.0328  0.0537
    1W        W38285  16.640   2.991   6.650 -0.0042 -0.0140 -0.0739
    1W        W38286  22.581  16.123   5.765 -0.0432  0.0063 -0.3203
    1W        W38287  24.123   3.618   7.786  0.1939 -0.0650  0.3146
    1W        W38288  12.728  13.152   1.047 -0.1260 -0.0172  0.3207
    1W        W38289  14.607   1.597   7.666 -0.1820  0.3564  0.3229
    1W        W38290  26.016  12.027   1.628 -0.1276  0.4103 -0.1213
    1W        W38291   9.138  15.019   1.332  0.0726 -0.3034 -0.0374
    1W        W38292   4.504  13.676   1.737 -0.0758  0.0046  0.1538
    1W        W38293   4.042  26.263   2.005  0.0233 -0.0506  0.1001
    1W        W38294   8.480  24.106   7.195  0.1028 -0.1685 -0.0119
    1W        W38295  11.700  19.936   0.095  0.0063 -0.4601  0.2751
    1W        W38296  18.018  26.818   6.048 -0.0473  0.1703  0.2665
    1W        W38297   5.572  16.338   1.496  0.3404  0.0781  0.2439
    1W        W38298  27.463  23.294   0.798  0.2086  0.0105  0.0660
    1W        W38299  26.536  14.840   6.769  0.2824 -0.1257 -0.3410
    1W        W38300   3.467   9.525   8.284  0.2557  0.3520 -0.0486
    1W        W38301   9.778  21.722   0.145  0.1163  0.1299 -0.1455
    1W        W38302  17.320  29.983   7.298  0.1383 -0.1622 -0.1292
    1W        W38303  29.205  12.308   8.290 -0.1595  0.3117  0.1471
    1W        W38304  17.047  28.691   0.638 -0.4285 -0.1333 -0.0033
    1W        W38305  23.578   7.138   9.142 -0.2271  0.2405  0.0251
    1W        W38306  11.396  17.931   7.775  0.0504 -0.1217 -0.2698
    1W        W38307  15.619   1.023   0.274 -0.0325  0.0780  0.1588
    1W        W38308  19.027  15.265   2.465 -0.0883 -0.3391 -0.1724
    1W        W38309  15.038  26.096   7.113 -0.2292 -0.0606  0.1515
    1W        W38310   0.965   9.640   1.011  0.0079  0.1423 -0.1213
    1W        W38311   0.330   1.574   9.099  0.1033  0.2077 -0.2006
    1W        W38312  28.023   3.621   2.656 -0.0510  0.0780 -0.1973
    1W        W38313  16.442  15.574   0.557  0.1069  0.0915  0.0785
    1W        W38314  10.358  16.431   1.884 -0.0957 -0.0871  0.0592
    1W        W38315   1.828  16.132   2.132  0.2598  0.1935 -0.2693
    1W        W38316   6.976   6.678   9.084 -0.2604  0.2650  0.1471
    1W        W38317  19.583  15.640   6.626 -0.1705  0.0414 -0.4931
    1W        W38318  28.786  28.795   8.304  0.0404 -0.0414  0.0132
    1W        W38319  13.809  22.599   2.760 -0.2105 -0.0590  0.1265
    1W        W38320  25.603  15.105   1.529 -0.2618  0.0482  0.1671
    1W        W38321  27.319  20.820   5.886 -0.0658  0.0505  0.0060
    1W        W38322  15.124   2.211   1.787  0.1861 -0.1264  0.0370
    1W        W38323  27.428   3.328   1.138  0.2241  0.2375  0.0558
    1W        W38324   4.234  21.316   0.877 -0.2460 -0.1072 -0.3145
    1W        W38325  16.383   0.785   2.478  0.1246  0.1633  0.2870
    1W        W38326   5.421  10.707   1.352  0.1448  0.0096  0.0148
    1W        W38327  29.457  29.110   9.249  0.1881  0.2960 -0.2460
    1W        W38328  22.980   9.423   5.631  0.0151  0.1455 -0.0740
    1W        W38329  10.061  22.277   7.835  0.1643  0.1419 -0.2164
    1W        W38330  11.320   5.150   1.929 -0.1959 -0.3119 -0.1095
    1W        W38331   2.872   3.754   7.272 -0.3638  0.0667  0.0598
    1W        W38332   0.176   4.263   1.480 -0.1775 -0.1025  0.1666
    1W        W38333  10.569   6.001   7.590  0.1310 -0.0587  0.1084
    1W        W38334  26.403   9.156   7.951 -0.2585 -0.0414 -0.0592
    1W        W38335   0.991  10.197   2.018  0.0390  0.2310  0.1327
    1W        W38336   8.741  14.787   8.308 -0.1070  0.2137  0.2209
    1W        W38337  22.682  23.279   7.715  0.2116  0.0928 -0.1273
    1W        W38338   1.791   7.984   1.364 -0.1156  0.1603  0.0253
    1W        W38339  21.929  22.060   7.020 -0.1751  0.0704  0.0787
    1W        W38340  14.333   8.626   7.042 -0.0265 -0.1896 -0.0192
    1W        W38341  16.906  28.228   0.291  0.3147 -0.0928  0.0679
    1W        W38342  10.006  15.887   2.733 -0.0612  0.1773  0.0870
    1W        W38343  10.962   2.546   3.294  0.2418 -0.0117  0.0980
    1W        W38344  29.630   2.382   3.435  0.2469 -0.0888  0.1895
    1W        W38345   0.337  27.487   7.151 -0.0887 -0.1024  0.0747
    1W        W38346   7.879  18.900   6.714 -0.0689  0.2204 -0.1907
    1W        W38347  26.844  10.164   6.553 -0.2280  0.2033  0.0183
    1W        W38348  16.761   5.016   8.758  0.2056 -0.0177 -0.2031
    1W        W38349  20.790  16.356   0.042  0.2705  0.0115 -0.2111
    1W        W38350  13.241  27.408   0.057  0.0748  0.1184  0.0561
    1W        W38351  24.852  22.489   7.362  0.2812 -0.1794 -0.0894
    1W        W38352  24.873  13.898   0.970  0.3678  0.1676  0.1030
    1W        W38353   1.532  11.805   2.118 -0.3212 -0.1131 -0.2042
    1W        W38354  29.107  30.143   7.843  0.1922  0.1481  0.1663
    1W        W38355   2.156  28.636   8.463 -0.0065  0.1112 -0.0631
    1W        W38356  21.109   8.864   0.572 -0.0578  0.1027  0.0785
    1W        W38357  22.091  25.464   8.982  0.2012 -0.0458  0.1282
    1W        W38358  14.634  11.330   3.852 -0.3847  0.2046  0.2077
    1W        W38359   2.348   3.231   8.499 -0.0909 -0.1343 -0.0386
    1W        W38360  20.237  10.574   0.854  0.0960  0.0644 -0.0986
    1W        W38361  17.449   2.274   1.179 -0.3248 -0.0488 -0.3179
    1W        W38362  12.959  30.352   1.388  0.1427  0.4502  0.2242
    1W        W38363  15.029  20.399   1.179 -0.1933  0.1296  0.0277
    1W        W38364  11.500   9.620   0.506 -0.0202 -0.2630  0.1044
    1W        W38365  24.036  21.012   1.135  0.1396 -0.3984 -0.1809
    1W        W38366  29.536  15.012   6.828  0.0476 -0.0805  0.1347
    1W        W38367  16.651   4.795   7.545 -0.2269  0.2049  0.1829
    1W        W38368  15.345   0.570   1.614 -0.0162 -0.2044 -0.3701
    1W        W38369  20.425   5.341   2.726  0.2974 -0.0085  0.0784
    1W        W38370  15.273  20.933   5.857  0.0015 -0.1342  0.1042
    1W        W38371  19.009   6.698   6.684 -0.2129 -0.0811 -0.0672
    1W        W38372  25.892  22.642   2.524 -0.0427 -0.1436  0.0909
    1W        W38373   0.134   8.070   1.962 -0.2738  0.1346 -0.1673
    1W        W38374   1.090   4.766   7.002  0.0225 -0.1138 -0.2864
    1W        W38375  12.078  27.726   1.279  0.0660  0.2030 -0.3616
    1W        W38376   6.796  28.989   8.006 -0.4223 -0.1889  0.2224
    1W        W38377  23.709  19.041   0.381 -0.0529  0.2044  0.2692
    1W        W38378  19.970   4.518   0.447  0.0122  0.2004  0.0161
    1W        W38379  23.475  18.414   8.120  0.0913  0.1214  0.3553
    1W        W38380  30.052   7.281   1.877  0.0537 -0.2068  0.2827
    1W        W38381  29.342  14.531   8.997 -0.3358  0.1935 -0.1322
    1W        W38382  20.183  14.036   7.589 -0.4763 -0.0036  0.0880
    1W        W38383  25.420  27.377   1.648  0.2505  0.1604 -0.0351
    1W        W38384  17.798   4.188   2.877  0.0137  0.3620  0.2124
    1W        W38385  28.840   6.669   0.201  0.2247 -0.3295 -0.0909
    1W        W38386   3.351  23.052   1.856  0.2262 -0.0046 -0.0071
    1W        W38387  22.022  18.697   9.059  0.2495  0.0090  0.3709
    1W        W38388  11.471  10.282   3.116 -0.2263  0.3274 -0.1257
    1W        W38389  16.429  26.024   8.274 -0.4523 -0.0778 -0.1127
    1W        W38390  15.620   6.718   7.660 -0.0060 -0.0537  0.2497
    1W        W38391  26.993   6.140   1.537  0.0419 -0.1645  0.0693
    1W        W38392  13.805  12.155   1.828  0.1339 -0.2990  0.2194
    1W        W38393  17.742   4.198   8.246 -0.2623 -0.4125  0.0796
    1W        W38394   8.098   3.611   2.369 -0.0216 -0.0276 -0.1182
    1W        W38395  23.853  18.085   7.950 -0.0308  0.1623 -0.2505
    1W        W38396  16.593  29.019   0.723 -0.4326  0.1512  0.3834
    1W        W38397   2.759  12.776   7.775 -0.2348  0.0208 -0.1371
    1W        W38398  21.422   0.368   1.303  0.2234 -0.0597  0.0491
    1W        W38399  16.472  17.909   6.541 -0.3380  0.0816  0.1559
    1W        W38400  25.929  12.043   6.597  0.1827  0.0592  0.0090
    1W        W38401   7.088  15.416   1.287  0.0055 -0.3031 -0.1445
    1W        W38402  22.389   0.030   2.847 -0.0307  0.0077  0.1778
    1W        W38403   2.631  24.390   0.953 -0.0011  0.1208 -0.0188
    1W        W38404   8.199  20.557   7.661 -0.2411  0.2890  0.1177
    1W        W38405  18.548   7.158   8.913 -0.1862 -0.0599 -0.0397
    1W        W38406   4.899  24.852   7.180 -0.0516 -0.1056 -0.3161
    1W        W38407  23.897  21.611   8.044  0.1695  0.2107 -0.0967
    1W        W38408  22.492  25.127   0.246 -0.1662  0.1634  0.0149
    1W        W38409  10.892   3.055   1.827  0.0302 -0.1578  0.0651
    1W        W38410  29.069  23.174   0.484  0.1154  0.1377  0.3893
    1W        W38411   8.498  16.077   5.982  0.0471  0.0490 -0.2174
    1W        W38412   6.093   6.767   8.743 -0.0737  0.0406  0.0982
    1W        W38413   6.179  22.348   1.156 -0.1744 -0.1369  0.1118
    1W        W38414  13.388   5.779   8.677  0.2266  0.1703 -0.1076
    1W        W38415  27.578  12.794   1.429 -0.0033 -0.0014  0.0309
    1W        W38416  22.517  20.629   0.485 -0.0634 -0.1755 -0.0651
    1W        W38417  16.759   6.497   6.938  0.0907 -0.1560 -0.0969
    1W        W38418  12.223  18.035   6.140 -0.1357 -0.0845  0.0235
    1W        W38419  28.593  27.605   6.954 -0.0097 -0.3235  0.1403
    1W        W38420  18.353  15.441   7.214 -0.0369 -0.1064 -0.1901
    1W        W38421  15.567   5.756   7.411  0.2092  0.0904  0.1483
    1W        W38422  22.005   4.601   1.887 -0.1389 -0.0119 -0.2877
    1W        W38423  29.078  29.723   0.995  0.0632  0.0760 -0.1196
    1W        W38424   1.121   1.762   0.325 -0.0271 -0.2079  0.0082
    1W        W38425   1.249  17.035   1.251 -0.4081  0.1300  0.0087
    1W        W38426  28.847  18.392   7.066 -0.2828  0.1140 -0.0393
    1W        W38427  24.141   3.439   8.887  0.1386 -0.2159  0.2818
    1W        W38428  16.044  19.445   0.368 -0.0286  0.1046  0.1722
    1W        W38429  17.157  29.070   6.283  0.0060  0.2278 -0.1838
    1W        W38430  15.108  22.011   1.713  0.2418  0.2009  0.3455
    1W        W38431   8.589   9.918   8.714 -0.2221  0.4025 -0.0260
    1W        W38432  27.402  18.006   1.046 -0.1275 -0.1874  0.0066
    1W        W38433  11.783   9.154   0.425 -0.1694 -0.1705  0.1202
    1W        W38434  12.116   7.507   2.544  0.0200 -0.0266 -0.0325
    1W        W38435  27.057  30.092   2.353  0.1495  0.4632 -0.0144
    1W        W38436   6.855  13.604   0.141  0.0942  0.1155 -0.1284
    1W        W38437   2.475  26.891   1.960  0.0471 -0.1075  0.0687
    1W        W38438  22.951  19.690   1.636  0.0288  0.1065 -0.2915
    1W        W38439  25.914  23.554   2.399 -0.2138  0.1258  0.0380
    1W        W38440  21.169  22.942   9.203 -0.0182 -0.0594  0.2361
    1W        W38441  11.066  26.848   7.676  0.0015 -0.3803  0.0442
    1W        W38442  22.957   3.636   1.765  0.0317  0.0874  0.0345
    1W        W38443  14.540  11.104   7.519 -0.0265  0.0764  0.1584
    1W        W38444  11.940  22.028   7.997  0.1685  0.2698 -0.3126
    1W        W38445  11.218   1.287   0.899  0.0584 -0.1050 -0.0710
    1W        W38446   5.499   7.541   8.845  0.3250  0.2200  0.3344
    1W        W38447  15.168  26.787   7.281 -0.1643  0.3930 -0.1066
    1W        W38448  16.452  15.041   7.282 -0.2606 -0.0035  0.2518
    1W        W38449   4.434   7.422   7.243  0.0257 -0.1515  0.1563
    1W        W38450  25.021   6.957   7.956 -0.0194  0.0719  0.0261
    1W        W38451  24.118   2.786   1.092  0.2347  0.1474  0.0107
    1W        W38452  26.031  13.883   0.794 -0.1367 -0.0015 -0.0718
    1W        W38453   8.716  10.034   1.514  0.0644  0.0319 -0.0221
    1W        W38454  27.905  23.632   8.553  0.1127  0.1598 -0.4108
    1W        W38455  13.690   3.153   8.509 -0.0882 -0.1335 -0.1862
    1W        W38456  16.779  18.500   8.194  0.0007 -0.0503  0.3129
    1W        W38457   5.047   5.490   0.977 -0.0094  0.1324  0.0079
    1W        W38458  23.029  27.196   0.138  0.0545  0.0235  0.0409
    1W        W38459   3.554  30.276   0.495  0.0358 -0.0125  0.0427
    1W        W38460  18.944  29.724   0.694 -0.1738  0.0082 -0.3212
    1W        W38461  25.355  10.055   1.640  0.1026 -0.0165  0.4130
    1W        W38462  10.958   6.273   6.970 -0.1152  0.0955 -0.1708
    1W        W38463   8.732  20.457   6.898 -0.1357  0.1363  0.1456
    1W        W38464  19.126   3.474   8.915 -0.1837 -0.3490  0.1922
    1W        W38465  21.122  18.353   7.757  0.3265  0.3684 -0.1701
    1W        W38466   0.615  26.693   2.721 -0.0168 -0.1154  0.0802
    1W        W38467  16.643  21.132   9.268 -0.0486 -0.2631  0.0783
    1W        W38468  18.019   5.405   2.465 -0.0705  0.1078 -0.2798
    1W        W38469  11.214  15.342   0.142  0.0813 -0.0497  0.3976
    1W        W38470   8.080  21.385   7.276  0.1395 -0.4667  0.1890
    1W        W38471  25.894   0.546   7.207  0.0470 -0.1185 -0.2353
    1W        W38472   0.158   3.081   8.797 -0.1851  0.2756  0.0095
    1W        W38473   8.157  26.744   1.466 -0.1145  0.4176 -0.2137
    1W        W38474   9.186  19.865   2.069  0.1337 -0.0542 -0.1458
    1W        W38475  15.318  26.237   2.671 -0.0427 -0.3125  0.0306
    1W        W38476   8.022  23.696   6.870  0.3195 -0.2267 -0.1004
    1W        W38477  29.802   6.777   2.125  0.0195  0.1352  0.1470
    1W        W38478  23.697   0.616   9.167  0.1205 -0.0150  0.1342
    1W        W38479   9.896  10.383   7.334  0.0510 -0.1562  0.2085
    1W        W38480  24.835  11.202   8.854 -0.2290  0.1837  0.0476
    1W        W38481  15.178   8.212   6.859  0.2259  0.0023 -0.0975
    1W        W38482  28.142  11.357   7.429  0.0668  0.2891  0.1390
    1W        W38483  23.713  29.190   1.466 -0.1546  0.1363 -0.0292
    1W        W38484  12.180  28.925   1.690  0.5852  0.0689 -0.3227
    1W        W38485   4.668  17.090   7.182 -0.1310  0.2249  0.0734
    1W        W38486  13.524  16.196   1.648  0.0471  0.5250  0.3004
    1W        W38487  22.442  20.290   6.956  0.1149 -0.3128 -0.1824
    1W        W38488   3.843   0.260   4.023 -0.0368  0.1466 -0.0917
    1W        W38489  20.360  30.318   1.444 -0.1409 -0.0335  0.2250
    1W        W38490  28.655   4.253   1.240 -0.2080  0.4550 -0.0106
    1W        W38491   5.236  25.488   2.248  0.0605  0.0262 -0.0931
    1W        W38492   3.002   2.958   1.571  0.0809  0.0209  0.3629
    1W        W38493  26.229   8.897   6.955 -0.2637  0.0226  0.0861
    1W        W38494   8.121  10.061   6.314 -0.4102 -0.1556  0.0785
    1W        W38495  20.626  16.121   6.531 -0.0204 -0.1484 -0.2839
    1W        W38496  10.757  10.158   2.402 -0.0820  0.0837  0.1009
    1W        W38497  27.974  24.254   7.340 -0.0725 -0.0732  0.2006
    1W        W38498  29.213   0.545   9.236  0.0799 -0.0696 -0.0251
    1W        W38499  21.383  21.983   6.080 -0.2027  0.0894  0.0658
    1W        W38500  21.276  14.412   7.733 -0.1142 -0.0635 -0.4185
    1W        W38501  13.655   3.824   1.616  0.1837 -0.0444 -0.2468
    1W        W38502   3.295   3.279   2.758 -0.0327 -0.3207  0.2051
    1W        W38503  13.377  23.828   0.776  0.1709  0.0348  0.1561
    1W        W38504  11.647  21.195   7.686 -0.1252  0.3057  0.0837
    1W        W38505  13.351  22.945   0.392  0.2043  0.0672  0.0420
    1W        W38506  12.343   8.844   2.010  0.1307 -0.3370  0.0027
    1W        W38507  11.692   6.542   0.566 -0.1794 -0.1987  0.0134
    1W        W38508  23.211   6.953   6.963 -0.2648 -0.1566 -0.0874
    1W        W38509   1.282   5.446   9.186  0.0872 -0.3534 -0.3172
    1W        W38510  17.275  25.984   6.557 -0.2751  0.1522 -0.0001
    1W        W38511  13.871  29.445   2.658 -0.1421 -0.0185 -0.1380
    1W        W38512   0.561   6.191   9.106 -0.1481  0.1755  0.3260
    1W        W38513   7.128   7.823   7.649 -0.2360 -0.0519  0.2081
    1W        W38514  25.005  18.336   6.883 -0.0815 -0.0141 -0.1144
    1W        W38515  17.413   2.880   8.134 -0.0489 -0.0274  0.1729
    1W        W38516   8.374  13.660   6.917  0.2089  0.1571 -0.0675
    1W        W38517  11.954   9.161   1.879  0.3241  0.0191 -0.1656
    1W        W38518  18.255   7.721   5.903  0.1968  0.1847 -0.0616
    1W        W38519  13.694   9.209   0.238 -0.2983  0.1281  0.0772
    1W        W38520  20.551  21.383   6.368 -0.2779  0.0039  0.0904
    1W        W38521   9.606  11.184   7.090  0.2204 -0.0293  0.0979
    1W        W38522  23.259   3.381   3.414  0.2388 -0.1366  0.1253
    1W        W38523  13.162   8.974   0.957 -0.0196 -0.0212  0.0418
    1W        W38524  27.087  16.989   6.671  0.0135  0.0702 -0.0147
    1W        W38525  28.660  16.407   7.485 -0.0194  0.0404 -0.0773
    1W        W38526  14.226   4.462   9.048  0.1313  0.1639 -0.1061
    1W        W38527   4.859  22.484   9.071  0.0060 -0.2131 -0.1721
    1W        W38528   6.059   8.693   8.640 -0.0608  0.3037  0.2826
    1W        W38529  29.640  19.743   1.524  0.1800  0.2969 -0.0676
    1W        W38530   9.169   4.463   0.655 -0.0983 -0.5335 -0.2155
    1W        W38531  25.645  23.929   2.637  0.1686  0.1645 -0.1413
    1W        W38532  24.019  28.386   0.228  0.1328  0.0659  0.0204
    1W        W38533  26.653  24.500   0.709  0.1572  0.1108 -0.1158
    1W        W38534  17.305   6.230   8.284 -0.0539 -0.1636 -0.1734
    1W        W38535  19.649  11.899   8.745 -0.0590  0.0269 -0.1395
    1W        W38536  25.781  12.776   8.472 -0.2002 -0.0175 -0.1900
    1W        W38537  22.640   8.987   5.617 -0.2321  0.0209  0.3342
    1W        W38538   8.890  25.582   8.797  0.1109 -0.1806 -0.1002
    1W        W38539   5.795   5.755   7.717  0.0836  0.0796 -0.0955
    1W        W38540  25.183  12.912   0.424  0.0206 -0.2170 -0.1277
    1W        W38541  15.294   3.923   1.870 -0.2658  0.0912  0.0877
    1W        W38542  22.858  21.434   5.641  0.2125 -0.1697  0.3244
    1W        W38543   5.927  29.008   1.658 -0.0349  0.1380 -0.3959
    1W        W38544   7.202  21.750   7.831 -0.1200  0.0339  0.1434
    1W        W38545  21.018   3.770   2.811 -0.2910  0.0274  0.0564
    1W        W38546  28.630  16.815   0.459 -0.0952  0.0636 -0.1738
    1W        W38547  12.051  27.255   8.786 -0.0481 -0.1007  0.2410
    1W        W38548   8.435  22.470   0.921  0.2533  0.2744  0.0953
    1W        W38549  14.590   7.114   8.481  0.2068  0.1520 -0.1184
    1W        W38550  28.454   3.838   7.935 -0.1770 -0.1809  0.2948
    1W        W38551   1.713   0.073   0.775  0.0243  0.0599  0.0862
    1W        W38552  12.038   9.944   6.952 -0.2304  0.0129 -0.0182
    1W        W38553  23.140   5.342   8.316  0.0613 -0.0994 -0.1287
    1W        W38554   9.425  28.754   2.080 -0.1130  0.1186  0.0874
    1W        W38555  21.552  25.004   5.849  0.4015 -0.1065  0.1088
    1W        W38556   1.302  24.798   2.328 -0.2831  0.0672  0.0829
    1W        W38557   2.223   8.366   7.883 -0.0626  0.1628  0.2039
    1W        W38558  21.408  16.557   7.046  0.1522 -0.0512  0.0496
    1W        W38559  16.829  14.089   2.906 -0.0071 -0.3951 -0.1198
    1W        W38560  22.858  18.759   0.905  0.2644 -0.1973 -0.2013
    1W        W38561   5.691  29.612   2.018  0.1154  0.1190  0.1948
    1W        W38562  15.770   3.470   9.092  0.2406  0.1930 -0.2648
    1W        W38563   6.144  18.156   0.992 -0.1108 -0.0137  0.3434
    1W        W38564   1.830  25.962   2.715 -0.2138 -0.3197 -0.0203
    1W        W38565  12.419  23.246   7.986  0.0234  0.0026  0.2698
    1W        W38566  23.170  26.833   1.206  0.1149 -0.2520  0.2142
    1W        W38567   7.031   2.254   0.066 -0.1375  0.4313  0.1268
    1W        W38568  13.610   5.287   6.553 -0.3242  0.0384  0.0835
    1W        W38569  26.812  13.475   8.753  0.0692  0.1937 -0.0548
    1W        W38570  14.769  10.637   8.230  0.1103 -0.0123  0.0174
    1W        W38571  26.493   9.706   2.249 -0.0012 -0.1158  0.1615
    1W        W38572   1.431  22.799   8.404 -0.1403 -0.0411 -0.0959
    1W        W38573  21.091  11.853   8.268  0.1520  0.1100  0.2153
    1W        W38574   4.653   5.889   7.696  0.3220  0.0991 -0.0898
    1W        W38575  25.052  26.950   7.575 -0.1507  0.0720 -0.0961
    1W        W38576  23.356  29.283   2.483  0.3717  0.0642 -0.0840
    1W        W38577  25.531  21.081   7.427 -0.1876  0.3193 -0.3139
    1W        W38578   1.444   7.439   8.722 -0.1554  0.1341  0.1247
    1W        W38579   6.179   3.079   7.600  0.0775  0.2115 -0.2355
    1W        W38580  14.011   9.332   0.939  0.2384 -0.3531 -0.2556
    1W        W38581  20.576   7.401   7.078  0.1496 -0.0423  0.2272
    1W        W38582  21.485   3.845   0.726 -0.2397 -0.0029 -0.0695
    1W        W38583   4.592  13.799   9.235 -0.1161 -0.0057 -0.2170
    1W        W38584   9.524   6.267   2.645  0.0832 -0.1087 -0.0668
    1W        W38585   4.431  18.707   8.596 -0.1007 -0.3669  0.2101
    1W        W38586  18.261  25.970   1.628 -0.2544 -0.0189 -0.0855
    1W        W38587   5.280   0.624   3.940  0.2903  0.1335  0.0849
    1W        W38588  16.529  16.093   8.350 -0.0896  0.1131 -0.2261
    1W        W38589  22.542  15.863   9.090 -0.1181  0.0377  0.0338
    1W        W38590  17.791  26.961   2.005  0.1958  0.3339 -0.1127
    1W        W38591   2.458   2.542   7.286 -0.0738 -0.0278 -0.2043
    1W        W38592  15.179   2.550   2.197 -0.0070 -0.1229  0.1784
    1W        W38593   9.570  30.125   7.741 -0.1929  0.2632 -0.1404
    1W        W38594   4.965  24.364   9.064 -0.1043  0.2563  0.2259
    1W        W38595  26.775  16.561   1.406 -0.1487 -0.0142  0.1361
    1W        W38596  14.669   6.339   5.550 -0.3227  0.2165  0.1167
    1W        W38597  26.844  28.764   3.139  0.1408  0.1556  0.1794
    1W        W38598   8.942  14.098   9.023 -0.0015  0.3357  0.4214
    1W        W38599  18.444   6.604   0.116  0.0648 -0.1213  0.2845
    1W        W38600  22.663   3.679   2.477  0.1158 -0.0066 -0.0354
    1W        W38601  28.269  17.728   5.909 -0.1104 -0.1900  0.0271
    1W        W38602  24.696  13.298   5.872  0.0153  0.3281  0.0543
    1W        W38603  22.727  23.800   7.159 -0.1980  0.3245 -0.1954
    1W        W38604  27.861   1.296   0.352  0.1345 -0.4486 -0.1647
    1W        W38605  23.894  17.060   1.607 -0.2578  0.1286 -0.0838
    1W        W38606   4.084   9.194   6.189 -0.0321  0.3173  0.1687
    1W        W38607  14.496   6.992   0.249 -0.5475 -0.1110  0.1640
    1W        W38608  29.868  22.708   1.562 -0.3685  0.0143  0.0054
    1W        W38609  25.101  16.565   7.776  0.1561  0.0266  0.1303
    1W        W38610  17.540  10.541   3.083 -0.3228  0.2528 -0.4923
    1W        W38611  27.500   6.854   7.546  0.1062 -0.2261  0.0874
    1W        W38612  17.522  11.472   0.354 -0.0319 -0.0571 -0.0427
    1W        W38613  21.893  13.456   8.740 -0.0630  0.1623 -0.0959
    1W        W38614   7.023  10.102   8.759 -0.0944 -0.3061 -0.3157
    1W        W38615  23.937  26.485   8.965  0.3210 -0.0980 -0.1391
    1W        W38616   9.490  25.187   7.413  0.0374 -0.1271 -0.2435
    1W        W38617  23.650   4.236   8.830 -0.0115 -0.0155 -0.2446
    1W        W38618   8.715  22.765   1.259  0.1241  0.0132 -0.0598
    1W        W38619  13.673  12.831   2.048 -0.2269  0.2068 -0.0138
    1W        W38620   1.356   0.131   2.484  0.1298 -0.1111  0.0725
    1W        W38621  21.635   9.466   8.283  0.1456 -0.2702  0.1157
    1W        W38622  17.556  12.792   7.572  0.2273  0.0475  0.1178
    1W        W38623  14.978   0.336   2.433  0.1782 -0.1460 -0.0502
    1W        W38624   5.036  22.048   9.225  0.0307 -0.1822  0.2638
    1W        W38625  16.271  26.493   0.869  0.2718  0.0871  0.1506
    1W        W38626  11.850   3.871   8.529 -0.0385  0.0922  0.0617
    1W        W38627  23.024  12.366   7.315 -0.1173 -0.1138 -0.1968
    1W        W38628   2.121   0.200   7.810  0.0541  0.4104  0.1736
    1W        W38629   5.076  27.735   1.481 -0.1208 -0.0001 -0.1365
    1W        W38630  10.057  17.723   0.605 -0.3348 -0.2547 -0.1933
    1W        W38631   7.753  28.222   2.420 -0.1142  0.1782 -0.1343
    1W        W38632  13.889  19.689   1.675  0.0758  0.1563  0.2409
    1W        W38633  12.236   6.211   2.031  0.0378 -0.1438  0.0956
    1W        W38634  15.620  15.089   7.630 -0.1864  0.0240  0.1898
    1W        W38635  23.856  15.886   5.899  0.0589  0.0381 -0.1209
    1W        W38636  18.251  12.120   2.310  0.0424 -0.0479 -0.0833
    1W        W38637  18.600   3.582   8.942 -0.1382  0.1651 -0.3957
    1W        W38638   7.380  29.080   2.725  0.1580  0.0051  0.2466
    1W        W38639  26.559  19.726   6.111  0.2280 -0.3539 -0.2558
    1W        W38640  16.982  25.494   7.561  0.2553  0.5653 -0.0332
    1W        W38641  23.403  11.170   1.458  0.2294  0.1538 -0.1175
    1W        W38642   1.004  28.828   1.645  0.2395 -0.0368  0.0662
    1W        W38643   8.193   5.747   3.611 -0.0533 -0.1174 -0.1175
    1W        W38644  28.079   5.055   8.359 -0.0888  0.0642  0.1686
    1W        W38645   5.228   8.931   1.679  0.0631  0.0750  0.4422
    1W        W38646  20.527  26.671   7.901 -0.1031  0.3106 -0.2246
    1W        W38647  29.260   3.600   8.723 -0.0582 -0.2187 -0.0122
    1W        W38648   4.028  16.944   0.691 -0.0301 -0.0536 -0.2936
    1W        W38649  28.153   6.157   7.260 -0.1421 -0.0548 -0.1724
    1W        W38650  14.466  18.958   2.095  0.2155 -0.0016  0.0527
    1W        W38651   4.030  23.418   0.660 -0.1450 -0.2195 -0.1240
    1W        W38652  22.396   2.911   1.172 -0.0341 -0.0343  0.1248
    1W        W38653  19.050  29.903   6.923  0.3774 -0.2503  0.1116
    1W        W38654  18.378   0.428   1.810  0.0031  0.1440 -0.0949
    1W        W38655  14.228   0.542   0.462 -0.0179  0.1504 -0.2975
    1W        W38656  25.721   2.917   3.487 -0.2370  0.0771  0.0479
    1W        W38657  22.694  20.504   8.616 -0.0632 -0.3965 -0.2817
    1W        W38658  25.656   7.379   1.704  0.1839 -0.1318 -0.3726
    1W        W38659   1.914  28.412   2.963 -0.0103 -0.1910  0.0154
    1W        W38660   8.474   2.749   0.616  0.0174 -0.0945  0.4699
    1W        W38661  23.827  24.924   1.098 -0.2511 -0.0355  0.0270
    1W        W38662  23.598   3.321   0.671 -0.2355 -0.0608  0.2039
    1W        W38663  14.205  18.788   0.772 -0.0050  0.0619 -0.1734
    1W        W38664   4.683  20.775   1.140 -0.0817 -0.0644  0.0012
    1W        W38665  10.520  26.232   1.988 -0.0825  0.0322  0.1404
    1W        W38666  18.533   6.426   0.801  0.0149 -0.0890 -0.0678
    1W        W38667  18.072  22.417   9.194  0.0185  0.2066 -0.0256
    1W        W38668   1.648   5.808   7.814 -0.1206 -0.0669  0.0117
    1W        W38669   6.691  17.930   8.367 -0.1801  0.3120  0.2652
    1W        W38670   3.156   7.309   7.686 -0.1112 -0.0173 -0.0113
    1W        W38671  27.712   7.141   8.725  0.0254 -0.1449 -0.1918
    1W        W38672   4.041  10.222   0.156 -0.0334 -0.1295 -0.1322
    1W        W38673  12.662  18.456   5.686  0.1147 -0.0701 -0.0983
    1W        W38674  28.420   5.520   6.650  0.0538 -0.0315 -0.1377
    1W        W38675  22.969  12.173   8.458  0.0096 -0.2198  0.0122
    1W        W38676   4.752  17.129   1.894 -0.1953  0.1128  0.1842
    1W        W38677  15.407  15.141   3.503 -0.1407 -0.1460  0.1427
    1W        W38678  26.589  30.022   2.256  0.1208 -0.5713  0.0630
    1W        W38679  24.198  19.343   1.458  0.3782 -0.0681 -0.2188
    1W        W38680  12.570  21.469   9.102 -0.1057 -0.1396 -0.1326
    1W        W38681   4.117  20.345   7.826 -0.0547 -0.0535  0.1523
    1W        W38682   0.650   0.812   7.460  0.1170 -0.0754  0.4210
    1W        W38683  26.838  24.090   0.455 -0.1215  0.0006  0.1831
    1W        W38684  17.503   0.379   8.634  0.1447  0.1808  0.0108
    1W        W38685  22.633   6.208   7.621 -0.0394 -0.5035  0.0923
    1W        W38686   9.251  27.261   9.065 -0.0014  0.0428  0.0342
    1W        W38687  20.454   8.106   8.278  0.0537 -0.1447  0.2349
    1W        W38688  17.845  15.432   6.806  0.0588 -0.4005 -0.2562
    1W        W38689  19.728   4.247   8.908 -0.0747 -0.1723  0.1852
    1W        W38690  10.470  28.697   6.746 -0.1370  0.1743  0.0807
    1W        W38691   5.404  23.308   8.508 -0.3517 -0.2603  0.0455
    1W        W38692  13.117  24.197   6.821  0.0762 -0.3063  0.3006
    1W        W38693   7.904  10.683   0.775  0.0350  0.0194 -0.0670
    1W        W38694  26.184  19.119   6.992 -0.0065 -0.2477 -0.1338
    1W        W38695  23.289   3.426   7.411 -0.0270  0.2261  0.1689
    1W        W38696   0.091  17.420   5.765 -0.0631  0.0763 -0.1857
    1W        W38697  23.836  23.719   6.364 -0.2041 -0.1701 -0.0129
    1W        W38698   8.470  25.971   7.871  0.2930  0.1941  0.0735
    1W        W38699  26.863   5.069   7.584 -0.3709  0.3113  0.3342
    1W        W38700   6.314   7.584   7.364 -0.1711 -0.0484  0.0138
    1W        W38701  12.998  25.469   7.630  0.1239 -0.0778  0.0156
    1W        W38702   7.421  30.312   6.819  0.0125  0.1386 -0.0905
    1W        W38703  24.957  11.507   8.441 -0.0520  0.1194  0.3846
    1W        W38704  14.548  17.350   0.332  0.3197 -0.0038  0.1688
    1W        W38705  22.640   1.706   0.223 -0.0586  0.2144  0.1901
    1W        W38706  10.761   5.988   8.584  0.2192  0.1905 -0.2085
    1W        W38707   8.730   4.547   2.073  0.2609 -0.1813  0.2406
    1W        W38708  12.501   5.801   2.183 -0.1810 -0.2192 -0.0956
    1W        W38709  19.599  12.071   0.785 -0.1145 -0.1147 -0.0566
    1W        W38710   6.417  19.380   6.443 -0.1420  0.2365  0.0482
    1W        W38711  20.103   5.586   8.804  0.2434  0.4790 -0.1971
    1W        W38712  14.296  30.287   7.477 -0.0760  0.1210  0.0106
    1W        W38713   8.622  14.736   2.007  0.0623  0.2543 -0.2859
    1W        W38714   7.118   4.409   9.095 -0.1725 -0.0463 -0.1858
    1W        W38715  30.246   6.550   0.027  0.3053 -0.5413 -0.1033
    1W        W38716  12.039  12.795   7.501  0.1318 -0.1021  0.1251
    1W        W38717   3.209   8.619   7.604 -0.2280  0.2834  0.1009
    1W        W38718  29.126  21.760   9.039  0.0459 -0.0096  0.2799
    1W        W38719  19.665  16.553   7.355  0.3205 -0.1738 -0.1068
    1W        W38720   9.780   1.993   6.492 -0.1342 -0.1374 -0.1534
    1W        W38721  24.605  18.581   0.414 -0.2258  0.0783  0.1440
    1W        W38722  23.176   1.603   7.516  0.2396 -0.0499  0.0064
    1W        W38723  16.882   1.664   8.845 -0.4941 -0.0262 -0.0822
    1W        W38724   8.930   1.752   1.474 -0.1262  0.0671  0.0830
    1W        W38725   1.509   4.433   2.669  0.0664  0.1741 -0.0145
    1W        W38726  26.102   9.518   7.942 -0.0840  0.0308 -0.0708
    1W        W38727  14.837   3.926   2.237 -0.2688 -0.1900 -0.0363
    1W        W38728  12.064  16.769   1.080  0.1846  0.0650  0.0584
    1W        W38729   2.281  11.541   0.576 -0.1224  0.0804 -0.0638
    1W        W38730  28.188  26.452   7.682  0.3577 -0.2443 -0.0402
    1W        W38731  22.080  19.175   9.212 -0.0162 -0.0462  0.0562
    1W        W38732  13.828  18.519   9.228  0.1644 -0.0451 -0.0129
    1W        W38733   5.053  15.711   0.051  0.0329  0.2516 -0.0538
    1W        W38734  26.290   7.736   8.662  0.1343 -0.0102 -0.0106
    1W        W38735  21.504  18.268   0.928 -0.2051  0.2747 -0.1596
    1W        W38736  20.004  16.489   1.831  0.1314 -0.2493  0.4178
    1W        W38737   4.507  29.616   2.748 -0.3693  0.0240 -0.0027
    1W        W38738  22.356  16.033   7.618  0.3561  0.0482 -0.1625
    1W        W38739   6.389   6.793   9.148 -0.1470  0.2083  0.2422
    1W        W38740  19.148  28.316   7.949  0.1954 -0.2678  0.1527
    1W        W38741  12.349  21.351   6.974 -0.0728  0.0472  0.1387
    1W        W38742   0.613   1.333   1.150 -0.5193 -0.1913  0.3399
    1W        W38743  20.844  15.202   0.114 -0.0177  0.1725 -0.2299
    1W        W38744   0.913   9.584   0.216 -0.0939  0.1892 -0.0734
    1W        W38745   8.451  25.756   9.035 -0.0908  0.0704 -0.0478
    1W        W38746  23.121   9.482   1.898  0.1827  0.1274  0.3262
    1W        W38747  19.943  27.537   2.028  0.1976 -0.0731 -0.0105
    1W        W38748  19.118   7.193   6.841 -0.3849  0.2868  0.1267
    1W        W38749  16.188   5.040   7.608 -0.0987  0.1233  0.3274
    1W        W38750  22.439  11.900   7.979 -0.1362 -0.0872  0.0692
    1W        W38751  20.903  21.196   8.420 -0.1317  0.3634 -0.1029
    1W        W38752   9.185  27.029   7.187  0.2029  0.1778 -0.2549
    1W        W38753  11.465  25.642   7.325 -0.3775  0.1868 -0.1696
    1W        W38754  11.430  12.860   0.780  0.3389  0.3585 -0.0226
    1W        W38755  10.360   4.213   1.869 -0.4710  0.1551 -0.1610
    1W        W38756  15.004   7.422   7.179  0.1351 -0.1305 -0.0569
    1W        W38757  10.904  26.452   7.363  0.3700  0.0269  0.0098
    1W        W38758  17.642  13.710   8.533  0.3430 -0.1657 -0.2271
    1W        W38759  15.746  16.937   2.033 -0.0952  0.0460 -0.1194
    1W        W38760  13.798   6.120   7.229  0.2347 -0.1395 -0.3644
    1W        W38761   5.471   6.824   0.088 -0.1277  0.1146  0.0615
    1W        W38762   5.415  18.743   7.919  0.2416  0.0693 -0.1618
    1W        W38763  11.256  25.958   6.991  0.1124 -0.0652  0.1175
    1W        W38764  21.117  28.320   1.307 -0.2264  0.1342 -0.2645
    1W        W38765  22.038   6.251   7.419 -0.0959  0.0050  0.2019
    1W        W38766   4.769  29.686   3.626  0.3538  0.1500  0.2328
    1W        W38767  21.508  19.876   7.818  0.0669 -0.3258  0.1345
    1W        W38768  23.386  28.658   7.774  0.2530  0.0144 -0.2526
    1W        W38769   1.501   7.905   7.566  0.0282 -0.0328 -0.2057
    1W        W38770  25.106  17.240   8.866 -0.3251 -0.1663 -0.2202
    1W        W38771  18.675   8.744   0.396  0.3243  0.3053 -0.0510
    1W        W38772   0.102  24.084   8.633  0.0170 -0.1065 -0.2327
    1W        W38773   0.486  22.447   7.913 -0.3314 -0.3390 -0.2700
    1W        W38774  26.442  19.746   1.108 -0.0801  0.1684  0.0392
    1W        W38775  18.376   5.419   8.981 -0.1552  0.0916  0.1081
    1W        W38776  12.941  21.032   2.061  0.1494 -0.1489 -0.2264
    1W        W38777  28.527   5.091   2.224  0.3169  0.1545  0.1706
    1W        W38778  23.966   3.755   1.873  0.2097  0.0247 -0.0298
    1W        W38779   2.895   8.374   2.569 -0.3451 -0.2054  0.3974
    1W        W38780   6.539  22.236   1.842 -0.0547  0.0816 -0.0179
    1W        W38781  10.880  25.581   0.868 -0.0618  0.0473 -0.2156
    1W        W38782  15.011  30.307   7.119  0.2137 -0.0527 -0.3567
    1W        W38783   9.054  24.826   7.620  0.2948 -0.0858 -0.2502
    1W        W38784  29.528  12.802   2.082 -0.1247  0.2483 -0.0937
    1W        W38785  19.052   7.947   6.223  0.1005  0.2610 -0.1697
    1W        W38786  12.988   3.683   8.549 -0.2314  0.2018 -0.0555
    1W        W38787  22.379  21.505   6.354  0.0609  0.2230 -0.0415
    1W        W38788  21.187   3.205   2.884  0.3250 -0.2251  0.0424
    1W        W38789  26.998   6.940   0.959 -0.3071 -0.2727 -0.1306
    1W        W38790  13.002  22.411   9.187  0.2849  0.3904 -0.4127
    1W        W38791  18.294   4.881   8.951  0.1285 -0.3248  0.0592
    1W        W38792   8.181  11.383   2.461  0.0873 -0.2600 -0.1725
    1W        W38793  15.456   8.554   1.590 -0.1103 -0.0410  0.0085
    1W        W38794  10.407   9.654   0.411 -0.0598 -0.1554  0.0540
    1W        W38795  18.490  12.812   8.801 -0.1349  0.0569 -0.0903
    1W        W38796  13.136  12.118   0.356 -0.0964 -0.1182  0.2431
    1W        W38797  23.866   0.991   0.822  0.3157  0.1722 -0.0817
    1W        W38798  17.954  28.049   7.531  0.1594  0.1245 -0.0311
    1W        W38799   7.432  29.710   0.230 -0.1118  0.1217 -0.3431
    1W        W38800  12.139  22.693   1.619 -0.0820  0.1751 -0.0822
    1W        W38801  19.960   7.870   8.054 -0.2139  0.2449  0.1171
    1W        W38802  26.320  27.301   2.935  0.1984 -0.0227 -0.0618
    1W        W38803  28.760  15.939   7.409 -0.1756  0.0480  0.0745
    1W        W38804  28.299   6.376   0.747  0.1288 -0.1120 -0.1447
    1W        W38805   7.732   2.806   8.578 -0.0373  0.0418  0.1106
    1W        W38806  11.248   0.713   0.944 -0.0384 -0.1354 -0.0585
    1W        W38807  16.287  17.797   1.014  0.1355 -0.0782 -0.1814
    1W        W38808  25.633  26.841   7.548  0.0720  0.0420 -0.0421
    1W        W38809  14.603  24.397   8.828  0.1812  0.5654  0.0127
    1W        W38810   1.702  11.624   7.600  0.3865 -0.0054  0.2872
    1W        W38811  18.825   5.036   6.920  0.0394 -0.0582  0.0886
    1W        W38812  21.471   2.759   1.625 -0.1082  0.0237  0.2424
    1W        W38813  20.802  20.019   6.650 -0.1480  0.3196 -0.1017
    1W        W38814  10.333   3.756   8.960 -0.0271  0.2930 -0.2835
    1W        W38815  18.523   9.726   8.589 -0.0918 -0.3018 -0.2827
    1W        W38816  14.285  16.308   7.298  0.0861 -0.1938  0.2599
    1W        W38817  27.859   8.195   0.857 -0.0394 -0.0402  0.0720
    1W        W38818  29.969  20.271   8.437 -0.0445  0.1575 -0.1861
    1W        W38819  25.207  17.531   1.662 -0.0095  0.0792 -0.0537
    1W        W38820   3.321   6.030   9.071 -0.0712  0.1857  0.1077
    1W        W38821   8.814  21.671   0.070  0.0001  0.0244  0.0667
    1W        W38822  24.447  30.152   8.329  0.3822  0.0269  0.2468
    1W        W38823   5.554  15.910   1.178  0.1043 -0.1888  0.1039
    1W        W38824   2.455  29.758   0.640 -0.0478  0.1591 -0.0323
    1W        W38825   3.199  13.594   9.044 -0.0435  0.0044  0.3073
    1W        W38826  15.799   5.240   0.942  0.0936 -0.2951 -0.2966
    1W        W38827  22.840  10.806   1.712 -0.1981  0.1517 -0.0759
    1W        W38828  19.323   5.885   8.083  0.0608  0.0780 -0.1601
    1W        W38829  22.131  27.874   0.611 -0.3276 -0.2623 -0.0685
    1W        W38830  15.822  16.778   8.226 -0.2599 -0.1366 -0.0270
    1W        W38831   5.526   8.195   0.735  0.2209 -0.0167 -0.1126
    1W        W38832  25.892  28.697   2.709  0.0626 -0.1484 -0.1904
    1W        W38833  18.676  12.382   6.803 -0.2865  0.1206  0.0776
    1W        W38834  19.223  12.050   1.839  0.3706  0.2896 -0.3043
    1W        W38835   2.247  18.521   0.271  0.0038  0.1866 -0.0714
    1W        W38836  14.808  13.212   7.787 -0.0660 -0.1797  0.2557
    1W        W38837   5.315   4.833   0.198  0.2850  0.1564 -0.0057
    1W        W38838  10.436   8.632   7.615  0.2145 -0.1777  0.0049
    1W        W38839   5.862   3.456   0.679  0.2956 -0.2415 -0.3237
    1W        W38840  26.419  23.811   1.620 -0.1233 -0.3857 -0.2241
    1W        W38841   7.502  29.811   2.265 -0.1084 -0.1375 -0.2681
    1W        W38842  10.109  12.759   2.808  0.0736  0.3394  0.5043
    1W        W38843  13.173  28.076   1.812  0.1935 -0.3388 -0.0307
    1W        W38844   2.160  18.595   1.247  0.4491  0.1946 -0.4301
    1W        W38845  20.541  18.203   8.215  0.2060 -0.0461 -0.0905
    1W        W38846   2.642   1.088   2.501 -0.2226  0.1166  0.1393
    1W        W38847  17.937  16.350   6.262 -0.2969 -0.1613 -0.0651
    1W        W38848  18.389   5.304   7.228  0.0353  0.0132  0.1277
    1W        W38849  20.774  29.910   2.251 -0.0444 -0.2074  0.0306
    1W        W38850  24.364   2.270   1.022  0.1903 -0.0212  0.0375
    1W        W38851  25.840  17.866   2.290  0.0943  0.1616  0.0287
    1W        W38852   4.870  27.777   8.837 -0.2135 -0.2928 -0.2366
    1W        W38853   1.021  20.576   7.448 -0.1315 -0.0987 -0.0875
    1W        W38854   1.287  21.228   0.215 -0.1669  0.2101 -0.3300
    1W        W38855  27.531   0.628   7.556  0.1207 -0.0821 -0.3330
    1W        W38856  17.540  16.103   1.416  0.0113 -0.0982  0.2441
    1W        W38857   0.266   1.502   1.501 -0.0862  0.0974  0.0184
    1W        W38858  19.275  16.783   0.559  0.0131 -0.0762  0.0625
    1W        W38859   9.033   6.170   7.913 -0.0255 -0.0128  0.2581
    1W        W38860  27.834  23.101   8.593  0.1376  0.2897 -0.2619
    1W        W38861  10.484  21.894   5.424  0.2147  0.1136  0.1115
    1W        W38862  14.626   1.546   1.164 -0.0361  0.1369  0.2024
    1W        W38863  18.065  30.097   2.455  0.3587  0.2687  0.3454
    1W        W38864  20.974  15.264   1.603  0.2819  0.2364  0.2397
    1W        W38865   4.449  23.731   7.214 -0.4072 -0.1191  0.0430
    1W        W38866  21.205  27.091   2.091  0.0837 -0.5007  0.0146
    1W        W38867   1.008  13.745   1.723  0.1786  0.0826  0.0845
    1W        W38868  24.568  25.061   1.090  0.0059  0.1024  0.1322
    1W        W38869  11.840  15.157   1.254  0.3152 -0.0511  0.0643
    1W        W38870  21.482  15.041   1.915  0.1337  0.1676  0.0662
    1W        W38871   7.659  16.637   0.982  0.0348  0.1623 -0.1172
    1W        W38872   6.326  17.484   8.155 -0.0419 -0.2241  0.0494
    1W        W38873   8.870   4.241   0.333  0.2321 -0.1222 -0.1167
    1W        W38874   6.320  17.743   0.752 -0.0574 -0.0456  0.0320
    1W        W38875  12.604  22.552   1.676 -0.2429 -0.0151 -0.0656
    1W        W38876  21.054  22.091   7.408 -0.0864  0.1648  0.0633
    1W        W38877  25.189   7.991   1.037  0.0005 -0.1106  0.0605
    1W        W38878  25.295  25.723   7.952  0.4901 -0.1338  0.1913
    1W        W38879   6.439  29.597   6.643  0.0143  0.0381 -0.1362
    1W        W38880  25.723  20.644   7.438 -0.0797 -0.2766 -0.1787
    1W        W38881  15.593  18.998   0.908 -0.1039 -0.0464 -0.2371
    1W        W38882   1.828  16.642   0.673 -0.0400 -0.2496 -0.0973
    1W        W38883   9.389  23.328   7.766  0.2703  0.0147  0.1319
    1W        W38884  16.918   8.023   5.958  0.0635  0.0161  0.0381
    1W        W38885   4.769   1.128   3.139 -0.3092 -0.2550 -0.0180
    1W        W38886  10.141   6.437   7.415  0.2738 -0.1697 -0.0213
    1W        W38887  20.778  13.583   2.386  0.0740 -0.0671  0.2612
    1W        W38888   1.321  22.770   8.887  0.0403 -0.1496  0.0760
    1W        W38889  24.475  29.619   2.699 -0.3206 -0.0510  0.2245
    1W        W38890  10.912   3.063   2.440 -0.1496  0.1760 -0.2667
    1W        W38891  28.159  26.842   7.294  0.1610  0.1228  0.1303
    1W        W38892  12.072  12.699   8.027 -0.0131 -0.0705 -0.0608
    1W        W38893  18.538  20.618   0.587  0.4199  0.0543 -0.2322
    1W        W38894  16.454   3.685   8.309 -0.2557 -0.0170 -0.0778
    1W        W38895   2.492  15.855   8.929  0.0575 -0.3643  0.4733
    1W        W38896  17.906  15.635   1.586 -0.0496 -0.2177 -0.1926
    1W        W38897  10.862   8.530   0.072  0.1140 -0.0787  0.1227
    1W        W38898   0.860   5.699   0.825  0.2723  0.0123 -0.1286
    1W        W38899   1.260  28.466   0.374 -0.1140 -0.0525 -0.0755
    1W        W38900  28.449   0.674   8.250  0.0700 -0.2266 -0.0116
    1W        W38901  29.561  17.796   7.131 -0.0713 -0.2250 -0.0227
    1W        W38902   7.634   6.962   0.761  0.0502 -0.3078  0.0819
    1W        W38903  22.937  11.343   6.624  0.1115 -0.2869  0.3242
    1W        W38904  16.693  23.493   6.372 -0.0225 -0.0001 -0.1271
    1W        W38905  19.474  16.306   1.459  0.0438 -0.1470 -0.0780
    1W        W38906   3.507   0.785   2.842 -0.0244 -0.2666 -0.3461
    1W        W38907  21.812  13.244   1.798  0.0950  0.1117 -0.1832
    1W        W38908  10.100  27.697   8.843 -0.0228 -0.5020 -0.2595
    1W        W38909  24.447  22.531   0.811  0.1068  0.0382  0.2683
    1W        W38910  13.421   0.959   2.626  0.1897 -0.1492  0.1234
    1W        W38911  17.817  11.769   8.062  0.3133 -0.3580  0.1473
    1W        W38912  13.180   6.511   7.940 -0.0396 -0.1334 -0.2376
    1W        W38913  29.113   0.991   8.965  0.1323  0.3945  0.1989
    1W        W38914   6.818   5.768   1.984 -0.0145 -0.3476  0.1263
    1W        W38915  25.395  24.841   8.939 -0.3193  0.0480 -0.1230
    1W        W38916  18.319  16.187   6.506  0.2818  0.1436  0.5036
    1W        W38917  16.636  26.696   8.151 -0.0666  0.0386 -0.1232
    1W        W38918   5.358  22.631   7.276  0.0555  0.1288 -0.1993
    1W        W38919   8.011   3.250   8.739  0.4243  0.2446  0.2237
    1W        W38920  19.340  24.314   0.904 -0.1332  0.2019  0.0615
    1W        W38921   8.652   7.910   0.888  0.0247  0.1377 -0.0012
    1W        W38922   4.964   7.921   7.260  0.0015 -0.1484 -0.1141
    1W        W38923   5.766   6.654   7.652 -0.0815 -0.0422 -0.2313
    1W        W38924  13.765  22.681   5.760  0.1764 -0.2593 -0.2433
    1W        W38925   4.080  24.225   0.656 -0.1364  0.1034 -0.0662
    1W        W38926   3.013   2.535   1.869  0.0094 -0.0762 -0.3966
    1W        W38927  26.848  11.065   9.053  0.1473 -0.1233 -0.1253
    1W        W38928   6.510  21.904   9.214  0.1486 -0.1107  0.1865
    1W        W38929  21.097   1.126   7.663  0.0120 -0.1986  0.0640
    1W        W38930   1.049  22.237   9.006 -0.1398  0.1118  0.1346
    1W        W38931  25.444  28.420   8.936  0.1658 -0.1529  0.0410
    1W        W38932  12.787  20.357   6.132  0.0931  0.2224  0.0165
    1W        W38933  16.303  29.569   0.044  0.0246 -0.0437  0.0579
    1W        W38934  21.363   8.787   7.415  0.2492 -0.0247 -0.2527
    1W        W38935  14.967   8.019   1.373 -0.2980 -0.2206 -0.1300
    1W        W38936  19.110  13.348   8.805 -0.0854  0.0360 -0.2089
    1W        W38937   3.116  19.150   7.100 -0.0070 -0.1730 -0.1050
    1W        W38938  23.421  21.261   9.067 -0.1679  0.1573 -0.2649
    1W        W38939  29.621  30.290   0.474  0.2039 -0.2324 -0.0576
    1W        W38940  29.338  14.652   1.554  0.3119 -0.0540 -0.1080
    1W        W38941   2.124  21.139   0.044  0.1033  0.1637 -0.1060
    1W        W38942   0.330  27.757   7.580  0.0229  0.0824 -0.0295
    1W        W38943  11.366   8.583   2.327 -0.1548  0.3940 -0.0233
    1W        W38944  12.280   5.926   2.620 -0.1129  0.1044 -0.0870
    1W        W38945   0.556  19.623   6.597 -0.2279  0.0649 -0.0293
    1W        W38946  10.780  23.060   9.062  0.0238 -0.1338  0.0412
    1W        W38947  21.872   5.516   0.278 -0.2469 -0.0713 -0.1660
    1W        W38948  17.059  26.098   0.241  0.4672 -0.0925 -0.2774
    1W        W38949  27.574   2.101   8.978 -0.0845 -0.1480  0.2209
    1W        W38950   2.118   5.275   0.664  0.3478  0.1774  0.1173
    1W        W38951   9.036   3.765   0.053  0.1360 -0.6791  0.1346
    1W        W38952  21.035  25.719   2.537 -0.1627  0.2084 -0.0542
    1W        W38953  27.122  18.586   0.510  0.2352 -0.2322  0.1198
    1W        W38954  29.832   0.289   8.313  0.1857 -0.0461 -0.2359
    1W        W38955   2.929   0.128   0.205  0.2472 -0.1900 -0.1079
    1W        W38956  27.002  21.278   1.385  0.0185 -0.0114 -0.0879
    1W        W38957  18.531  24.292   7.170  0.0591  0.0033  0.1495
    1W        W38958   4.507  11.984   7.339 -0.0018  0.0750  0.0569
    1W        W38959  23.855  22.459   1.861 -0.1186 -0.1956  0.0986
    1W        W38960   0.229  15.785   0.383  0.0762  0.0078 -0.0179
    1W        W38961  22.136  12.525   8.724  0.0809 -0.0869 -0.1963
    1W        W38962   8.070   7.659   9.209 -0.0577  0.0579  0.0419
    1W        W38963  10.529   5.246   8.037 -0.3069 -0.1118 -0.1944
    1W        W38964   4.129   1.490   7.854 -0.1969 -0.1966  0.0663
    1W        W38965  25.683  23.054   8.377 -0.0350  0.0814 -0.2745
    1W        W38966  20.549  27.301   0.899 -0.1841  0.1594 -0.1156
    1W        W38967  29.895   9.192   7.655 -0.0456  0.0473  0.1165
    1W        W38968  10.295  10.706   7.107  0.0095 -0.1912 -0.1190
    1W        W38969  17.473   1.669   0.245 -0.3317 -0.1744 -0.2689
    1W        W38970  12.731   1.222   2.093  0.3715 -0.0892  0.2651
    1W        W38971   2.874  22.891   0.334 -0.2687 -0.1308  0.0222
    1W        W38972  28.933   4.419   7.542 -0.0315 -0.3962  0.2434
    1W        W38973   8.871  13.770   1.299 -0.1700  0.0522 -0.0555
    1W        W38974  10.569  10.447   8.959  0.1625 -0.0890 -0.3023
    1W        W38975  30.244   4.613   7.653 -0.2740  0.1281  0.2081
    1W        W38976   9.269  28.212   0.819  0.0354 -0.1530 -0.2729
    1W        W38977  19.874  16.562   1.016 -0.1000 -0.0094 -0.2024
    1W        W38978  17.731  23.465   0.677 -0.1393 -0.1798  0.2383
    1W        W38979   0.874  21.416   1.830  0.0061  0.1950 -0.1242
    1W        W38980   2.405  22.654   9.176 -0.0802  0.0860 -0.1665
    1W        W38981  13.494  13.578   1.387  0.1723 -0.3712 -0.0262
    1W        W38982  14.582   4.131   1.546  0.2830  0.1183 -0.0983
    1W        W38983   4.555  26.700   7.948 -0.2478 -0.1794  0.2704
    1W        W38984  19.457  20.587   1.732 -0.0338  0.0881  0.2206
    1W        W38985  21.427  13.689   8.936 -0.1762  0.1986 -0.2055
    1W        W38986   3.232  25.732   7.605  0.1997  0.2054  0.1392
    1W        W38987  13.868   6.885   7.083  0.1966 -0.2389  0.5449
    1W        W38988  18.098  15.793   8.654 -0.0793 -0.1643 -0.1596
    1W        W38989   6.923  24.543   7.328  0.1781  0.0092  0.0097
    1W        W38990   7.111   3.317   1.383  0.2408  0.0554 -0.4910
    1W        W38991   4.039  14.156   8.756 -0.3946 -0.3469  0.2417
    1W        W38992   4.899   1.860   1.585 -0.1169 -0.0413 -0.1750
    1W        W38993  17.400  14.971   1.352  0.1256 -0.1508 -0.2365
    1W        W38994   3.789  15.931   8.745 -0.3603 -0.0466 -0.1390
    1W        W38995   2.363  19.312   6.048 -0.1793 -0.1041  0.0992
    1W        W38996  18.069   4.462   5.869  0.1443 -0.0099 -0.0136
    1W        W38997  15.135  28.817   1.161  0.3082  0.2265 -0.0375
    1W        W38998  21.130   3.553   7.645  0.0955  0.2035  0.0513
    1W        W38999  19.554  26.976   6.451  0.1937  0.1461  0.1225
    1W        W39000   7.049  11.547   6.607  0.1626 -0.3195 -0.3917
    1W        W39001   1.040   1.402   0.778 -0.3041 -0.0556 -0.1992
    1W        W39002   8.289  16.269   0.497 -0.1738 -0.1800  0.1230
    1W        W39003  27.463  22.078   1.272 -0.1510 -0.1194 -0.0389
    1W        W39004  25.721  19.042   0.769  0.1461 -0.3240  0.0358
    1W        W39005   5.895  18.223   8.961 -0.2289 -0.1508 -0.0736
    1W        W39006  23.324  30.200   2.513  0.1961 -0.1204 -0.1497
    1W        W39007  11.592  25.584   6.794 -0.3045 -0.0803 -0.0179
    1W        W39008  17.893  28.514   3.281  0.2082 -0.0745 -0.0715
    1W        W39009  19.245   2.308   8.308 -0.1108  0.0904 -0.1540
    1W        W39010   8.084   6.085   7.554 -0.1864  0.2655 -0.3528
    1W        W39011   7.946  15.748   7.133  0.0106 -0.1478  0.0176
    1W        W39012   9.711  10.555   8.867  0.1437 -0.3194 -0.1276
    1W        W39013  10.919   1.063   3.662  0.2803 -0.0699 -0.1152
    1W        W39014  28.165   1.522   8.919 -0.1430  0.2690 -0.0841
    1W        W39015  12.205  28.204   8.265 -0.0536 -0.1172  0.3436
    1W        W39016  25.109  20.302   9.051  0.0387 -0.0364  0.1398
    1W        W39017   7.597  16.306   2.392 -0.2306  0.1070 -0.2204
    1W        W39018  29.047  12.512   0.926  0.0551  0.2071 -0.2956
    1W        W39019  11.938   0.184   0.553  0.1914 -0.3736  0.0743
    1W        W39020  23.568  16.211   2.267  0.0584  0.0811 -0.2257
    1W        W39021  28.035   3.110   1.805 -0.0776 -0.3104  0.1834
    1W        W39022  19.339  17.155   2.825 -0.2201  0.0701 -0.1290
    1W        W39023  16.106   7.916   6.345 -0.1696 -0.2236 -0.0613
    1W        W39024   5.092  11.322   1.823 -0.1360 -0.7237 -0.0792
    1W        W39025  12.246   0.827   0.648  0.2087 -0.1254 -0.0245
    1W        W39026   3.176   0.942   7.604  0.2053  0.1928  0.1992
    1W        W39027   9.539  25.433   1.966 -0.2475 -0.0887  0.0078
    1W        W39028  15.625   8.070   7.127  0.1193  0.3001  0.1335
    1W        W39029   6.387  16.038   6.910  0.2211 -0.4164 -0.0810
    1W        W39030   8.690  16.279   1.797  0.0292  0.0224 -0.2553
    1W        W39031   2.978  17.461   8.558  0.2056  0.2274  0.0436
    1W        W39032   3.243  29.802   2.571  0.1679 -0.0752  0.1340
    1W        W39033  15.221  25.192   0.996  0.1911 -0.1463 -0.2337
    1W        W39034  28.574   8.932   2.885  0.0653 -0.2515 -0.1038
    1W        W39035  27.769   9.048   1.485  0.1930  0.0950 -0.0429
    1W        W39036   9.097   3.003   2.260  0.2227  0.2894  0.0004
    1W        W39037  20.246  22.353   1.257  0.0747 -0.2814 -0.0458
    1W        W39038  24.657  20.025   0.140  0.0191 -0.1457 -0.2330
    1W        W39039   3.346  22.749   0.466 -0.3224  0.0315 -0.1930
    1W        W39040  29.088  26.451   1.906 -0.1096 -0.2405  0.0696
    1W        W39041  27.351  10.986   6.870 -0.4337  0.2978 -0.2183
    1W        W39042  26.139   8.139   0.099  0.0696 -0.1382  0.2430
    1W        W39043  14.005  12.531   7.384 -0.0273 -0.2956  0.3371
    1W        W39044  20.432  16.004   5.727  0.0255 -0.2307  0.0764
    1W        W39045  11.267  28.814   2.063 -0.1066 -0.0416  0.1037
    1W        W39046   1.608  25.856   9.002 -0.0452 -0.3157 -0.1371
    1W        W39047  12.577  26.714   6.855 -0.2746  0.1784 -0.0127
    1W        W39048   9.680  22.277   6.237 -0.1252 -0.0758  0.4189
    1W        W39049  21.985  10.684   2.412  0.0296  0.2389 -0.3205
    1W        W39050   6.455   0.189   9.056  0.1906  0.2218 -0.0362
    1W        W39051  15.085  11.241   8.493  0.1447  0.1063  0.2119
    1W        W39052  27.270  16.901   0.541 -0.0618 -0.2424 -0.1128
    1W        W39053  24.884  21.054   0.512  0.1344 -0.2639 -0.1184
    1W        W39054   0.299  15.608   0.842 -0.1803  0.1088  0.1110
    1W        W39055   2.113  24.346   3.070 -0.1086 -0.0423  0.3277
    1W        W39056  22.527   8.182   1.075 -0.1601  0.0963 -0.3758
    1W        W39057  11.942  17.340   2.988 -0.0058  0.1821 -0.2161
    1W        W39058   7.040   3.196   2.405  0.0583  0.2185 -0.0741
    1W        W39059   4.547  22.582   7.362 -0.0709  0.1104  0.0673
    1W        W39060  20.762   3.315   0.223  0.0000 -0.0182 -0.0550
    1W        W39061   6.203   3.845   1.566  0.1056 -0.1875  0.0371
    1W        W39062  12.373   0.234   2.032 -0.1359 -0.1739 -0.0135
    1W        W39063  18.838   6.036   8.046 -0.0229  0.3316  0.0595
    1W        W39064  17.389   9.169   0.646  0.0535  0.1232  0.0502
    1W        W39065  15.737  23.964   6.792  0.0778 -0.0068  0.1131
    1W        W39066   8.896   7.243   0.257  0.1911  0.0866 -0.1970
    1W        W39067   3.782  16.043   0.879  0.0800 -0.2537  0.0101
    1W        W39068  29.076  29.179   7.474 -0.0122  0.1240  0.1228
    1W        W39069   1.487   8.380   1.487  0.2612 -0.2507 -0.0322
    1W        W39070  13.915   4.951   6.786 -0.0491 -0.2282 -0.0951
    1W        W39071  20.698   1.651   8.180 -0.2473 -0.3227 -0.1731
    1W        W39072  26.731  12.412   1.264 -0.1373  0.1283  0.0233
    1W        W39073  16.259  22.665   2.704 -0.0891 -0.3152  0.0432
    1W        W39074  21.932  29.125   0.110 -0.1117  0.2576 -0.1747
    1W        W39075  17.537  29.130   1.790  0.1789 -0.2652 -0.1406
    1W        W39076  25.176  18.674   7.833 -0.1141  0.6208 -0.2102
    1W        W39077   9.464  23.998   1.769 -0.0869 -0.0072  0.1319
    1W        W39078  20.852   0.007   1.414  0.0521 -0.1502 -0.2144
    1W        W39079   8.451   4.035   8.744 -0.0093 -0.0039 -0.4015
    1W        W39080   8.164  10.288   1.624  0.2867  0.0040 -0.2452
    1W        W39081   3.542  25.311   7.643 -0.1754  0.0411 -0.0155
    1W        W39082  29.429  12.576   8.669  0.1397  0.0482  0.0533
    1W        W39083  22.098  15.801   8.805 -0.0201  0.0425 -0.0690
    1W        W39084  22.916  30.101   7.928  0.1431  0.1847 -0.3068
    1W        W39085  16.673   1.145   7.160 -0.1303  0.0566  0.0842
    1W        W39086  20.395  21.148   8.551 -0.2386 -0.0372 -0.1474
    1W        W39087  11.901  28.986   8.579 -0.0486 -0.1102  0.1033
    1W        W39088   0.374   6.135   2.869 -0.2321 -0.0216 -0.0748
    1W        W39089   8.940  14.172   1.008  0.3989 -0.2638 -0.0131
    1W        W39090  21.115  14.506   2.072 -0.0415 -0.3293 -0.2860
    1W        W39091  17.385  21.600   8.010 -0.0025 -0.0205  0.0769
    1W        W39092  18.384  22.574   1.534  0.0465 -0.3376 -0.0267
    1W        W39093  13.673  16.432   8.932 -0.1264  0.0018 -0.1236
    1W        W39094  13.782   9.625   2.135 -0.2945  0.1020  0.0494
    1W        W39095  29.984  26.218   0.163  0.3737 -0.3282  0.2403
    1W        W39096  24.709  25.675   1.452  0.1051  0.0272 -0.3003
    1W        W39097   5.439  29.480   6.818  0.1048  0.0820  0.0769
    1W        W39098  19.207  30.243   8.538  0.1376  0.1641 -0.2079
    1W        W39099  18.285  24.119   0.991 -0.1512  0.0638 -0.1450
    1W        W39100   7.544   2.431   3.344  0.4856 -0.1838  0.2736
    1W        W39101  17.788  28.523   9.254  0.0321  0.1824 -0.2667
    1W        W39102   9.104   3.484   2.459  0.0144  0.0143  0.1370
    1W        W39103  23.680  19.560   5.646  0.1017 -0.0924 -0.0263
    1W        W39104   9.261  16.475   2.679  0.2397  0.2281  0.1222
    1W        W39105  26.524  11.189   1.983  0.1839  0.1614 -0.0815
    1W        W39106  15.143  16.026   8.231 -0.0895 -0.1788 -0.1008
    1W        W39107   9.852   0.799   8.294  0.1582  0.0436 -0.1591
    1W        W39108  14.351  12.882   3.148 -0.0695 -0.2483  0.1649
    1W        W39109  24.381  28.131   2.647 -0.1453 -0.1965 -0.1020
    1W        W39110  30.045  12.032   6.546 -0.1285  0.1790 -0.0270
    1W        W39111  20.121  15.664   1.480 -0.1923  0.0799 -0.0412
    1W        W39112  15.119  28.003   8.002 -0.0064  0.0610  0.1861
    1W        W39113  17.753  17.410   6.364  0.2050  0.2739 -0.2209
    1W        W39114  19.867   3.266   0.557  0.3232 -0.2770  0.1055
    1W        W39115  29.217   4.962   8.402 -0.0813  0.2464  0.0410
    1W        W39116  27.751  27.349   7.489  0.2044  0.1557  0.2060
    1W        W39117   2.167  12.924   9.247 -0.0983  0.1533  0.4197
    1W        W39118  22.307   3.076   2.924  0.0368 -0.0433 -0.0304
    1W        W39119   3.298   2.322   7.725 -0.2740 -0.1953  0.2350
    1W        W39120  14.810  15.010   7.728  0.0801  0.0877 -0.1401
    1W        W39121   1.872  12.460   8.549  0.0883 -0.0048  0.0549
    1W        W39122   0.311   6.754   3.145  0.1497 -0.3377  0.1827
    1W        W39123   3.957   5.671   8.154 -0.1069  0.1152  0.2145
    1W        W39124  27.352   3.156   8.298 -0.0678  0.1769 -0.1532
    1W        W39125   8.395  18.406   0.206 -0.0041  0.0303 -0.0421
    1W        W39126  17.694   0.564   7.217  0.0911  0.1753  0.1629
    1W        W39127  24.880  15.313   8.540 -0.1643  0.0291  0.0316
    1W        W39128  16.394  25.430   6.921  0.1042  0.2728 -0.2349
    1W        W39129  21.856   0.559   7.844 -0.1377  0.2282  0.0250
    1W        W39130   3.477   3.762   2.632 -0.2710 -0.2675 -0.1368
    1W        W39131   7.121  20.540   8.075 -0.0019  0.2191 -0.1810
    1W        W39132  23.919  16.110   8.059  0.1265  0.1082 -0.0367
    1W        W39133  12.087   7.336   0.508  0.3439  0.0987  0.0409
    1W        W39134   6.582  14.159   7.495  0.1233 -0.1701  0.0788
    1W        W39135  24.971  13.112   7.930 -0.0541  0.1087  0.1312
    1W        W39136  17.110   9.875   8.467  0.1271  0.3922 -0.0182
    1W        W39137  29.074   6.411   7.788 -0.1296 -0.2136  0.0370
    1W        W39138   0.351  15.137   0.969 -0.5354 -0.1497  0.0934
    1W        W39139   9.724   4.830   7.536 -0.1016  0.0466  0.1411
    1W        W39140  21.875  21.878   7.551 -0.0652 -0.0431 -0.2275
    1W        W39141  16.869   0.370   0.606 -0.1795  0.3101 -0.2496
    1W        W39142  27.358  27.839   0.978  0.0259  0.1535 -0.1046
    1W        W39143  27.436  28.779   2.773 -0.1867 -0.0995  0.3138
    1W        W39144  30.026   1.708   2.219  0.3576  0.2583 -0.1936
    1W        W39145  25.894  18.225   0.478  0.0679  0.1838  0.0619
    1W        W39146  10.736   0.507   2.147  0.0408 -0.2686  0.0665
    1W        W39147   2.290   2.488   8.916  0.1850  0.1540  0.1419
    1W        W39148  15.122   6.945   6.878  0.3018  0.3543 -0.1749
    1W        W39149  18.504  23.398   9.194 -0.1649  0.1273  0.1066
    1W        W39150  28.339  30.185   8.089  0.0509 -0.2827  0.0222
    1W        W39151  20.730   9.243   8.193 -0.1094 -0.3045  0.2215
    1W        W39152  15.158   4.797   2.078 -0.1537  0.3251 -0.1312
    1W        W39153   5.680  21.078   0.552 -0.1744 -0.2351  0.0079
    1W        W39154  20.807  28.222   0.738  0.3323 -0.0088 -0.1000
    1W        W39155  23.871   3.781   8.648 -0.0445  0.2692  0.0707
    1W        W39156   3.421  26.425   0.590 -0.1639  0.3724 -0.2190
    1W        W39157  29.236  23.747   7.182 -0.1143 -0.0917 -0.0807
    1W        W39158   6.736   3.392   1.047 -0.1919 -0.0220  0.0229
    1W        W39159  29.841  11.253   7.295  0.3023  0.0845 -0.1092
    1W        W39160  30.172  17.387   1.243  0.0391  0.0686 -0.0983
    1W        W39161   8.101  16.587   2.188 -0.2596  0.2239  0.1301
    1W        W39162   9.851  11.343   1.903  0.2268 -0.1909 -0.1048
    1W        W39163  18.224   5.911   2.653 -0.2140 -0.1192  0.0496
    1W        W39164   2.467  12.236   2.050 -0.4326  0.1872 -0.0763
    1W        W39165   2.209   4.421   0.653  0.0973 -0.0622 -0.0621
    1W        W39166  19.315  29.574   7.234 -0.0288 -0.0831 -0.0391
    1W        W39167  22.121  19.900   1.084  0.0131  0.0270  0.1377
    1W        W39168   5.190  22.054   1.291  0.0546  0.3317 -0.2184
    1W        W39169  25.310   9.178   1.666 -0.2781  0.0856 -0.2288
    1W        W39170  15.190  10.783   1.884 -0.0984 -0.2325  0.0236
    1W        W39171   9.569   6.349   3.164  0.0140  0.2512 -0.1758
    1W        W39172   8.611  17.193   2.697 -0.0081  0.0958  0.1316
    1W        W39173   8.500   0.574   8.267 -0.0630  0.0931 -0.0926
    1W        W39174  27.508  15.479   8.818  0.0807  0.0762 -0.1602
    1W        W39175   0.656  24.968   0.363  0.0890  0.0202  0.1813
    1W        W39176  22.690  25.272   7.413 -0.0621  0.0781  0.1412
    1W        W39177  20.424   3.144   0.683 -0.1630 -0.3403 -0.0155
    1W        W39178  12.366  17.986   7.946 -0.1117  0.1126  0.0138
    1W        W39179  27.442   2.803   7.964 -0.1074 -0.1618  0.1345
    1W        W39180  20.722  28.907   9.136 -0.2348 -0.0340 -0.1915
    1W        W39181   4.460  20.441   0.411  0.0945 -0.0039  0.0752
    1W        W39182  18.436  10.365   0.993 -0.3604  0.2150 -0.1084
    1W        W39183  20.689  25.280   6.492  0.2042  0.0886 -0.0521
    1W        W39184  13.237  26.906   8.558  0.3772 -0.1489 -0.0877
    1W        W39185   4.569  19.217   8.397  0.0237  0.1875 -0.0381
    1W        W39186   6.313   0.751   1.981 -0.0138  0.3077  0.2737
    1W        W39187  24.592  18.116   0.133 -0.1260  0.1825 -0.0882
    1W        W39188   1.607   2.270   2.461  0.1403 -0.1946 -0.0279
    1W        W39189   4.634   4.935   2.776 -0.0636 -0.2757  0.1619
    1W        W39190  28.494   4.755   7.494 -0.0504  0.1718 -0.1650
    1W        W39191  18.902  20.441   0.838 -0.0220  0.1298  0.2155
    1W        W39192   3.808   1.139   3.047 -0.0839 -0.0509 -0.1633
    1W        W39193   4.783  16.418   1.632  0.2608 -0.0308 -0.1418
    1W        W39194   3.542   7.532   1.124  0.4329  0.2959 -0.1188
    1W        W39195  26.067  27.612   7.988  0.2096  0.0896 -0.1192
    1W        W39196  22.061   2.948   9.000  0.1020  0.2241 -0.1724
    1W        W39197   0.895  19.530   7.747 -0.0039  0.0606 -0.1911
    1W        W39198   3.107  26.897   9.151  0.2809 -0.0749 -0.1695
    1W        W39199   4.737  21.352   1.394 -0.3552  0.0632  0.3967
    1W        W39200   6.229  28.985   2.959  0.2481  0.0566  0.1509
    1W        W39201  10.816   5.497   1.677 -0.0540 -0.2130  0.1293
    1W        W39202  12.712  29.606   8.357  0.1224  0.1621  0.2012
    1W        W39203  28.351  18.216   5.915 -0.0683 -0.0064  0.2239
    1W        W39204  14.460  22.280   9.202 -0.0083 -0.2215  0.0218
    1W        W39205  20.162  25.612   0.988 -0.0960  0.1977  0.2569
    1W        W39206  12.673   6.514   7.972 -0.0508  0.0938  0.0476
    1W        W39207  26.193   1.083   0.324 -0.0286  0.0291 -0.1200
    1W        W39208  20.831   1.572   3.306 -0.1773  0.2150 -0.1578
    1W        W39209   3.959  12.759   7.957 -0.0140  0.1580 -0.1475
    1W        W39210   6.955   6.589   0.305  0.3026  0.1971  0.2166
    1W        W39211   9.847   3.289   0.306  0.3392 -0.0991  0.0634
    1W        W39212  10.345   6.005   9.149 -0.1701 -0.2772 -0.0463
    1W        W39213   3.562  20.366   0.852 -0.1256 -0.1616 -0.0799
    1W        W39214   8.530  19.132   0.744  0.0182 -0.0550  0.0343
    1W        W39215  18.630   7.506   6.182  0.0728  0.3592  0.0188
    1W        W39216  20.256  25.487   9.169  0.3474 -0.2762 -0.0290
    1W        W39217   4.151  24.190   1.170 -0.0030  0.0240  0.1335
    1W        W39218  20.009  10.871   7.139  0.0839 -0.1077 -0.2070
    1W        W39219   9.600  14.571   9.178 -0.3137 -0.1900  0.0191
    1W        W39220  14.157  21.815   1.194  0.1552  0.1505  0.1222
    1W        W39221  15.918  25.646   6.731  0.1378 -0.2720  0.0509
    1W        W39222  17.617   6.968   7.193 -0.0056 -0.0994  0.0836
    1W        W39223  18.328  10.766   1.707  0.0245 -0.2547 -0.0135
    1W        W39224   6.403   3.901   7.601  0.0726 -0.1886  0.0926
    1W        W39225  12.847  24.913   1.188  0.1260  0.2140 -0.1407
    1W        W39226  23.005  30.158   3.193  0.0924  0.2070  0.3322
    1W        W39227  18.337  15.851   8.145  0.2063  0.1023  0.2299
    1W        W39228   3.705  25.478   8.719  0.2308 -0.2055 -0.1455
    1W        W39229  24.923   0.732   9.213 -0.0755  0.1993 -0.0830
    1W        W39230  12.589   2.505   1.793 -0.0690 -0.0903  0.1080
    1W        W39231   4.365  28.508   2.985  0.1615 -0.1091 -0.3449
    1W        W39232  26.416   9.821   1.807  0.1556  0.1633  0.1117
    1W        W39233  20.898  22.750   8.017  0.1497  0.2631  0.1242
    1W        W39234  29.318   6.272   1.011  0.0564  0.1287 -0.1416
    1W        W39235   0.828  21.927   0.052  0.1069  0.3722 -0.1240
    1W        W39236  21.134   6.348   7.724  0.2124 -0.0807 -0.1793
    1W        W39237  28.630  13.257   1.271 -0.0219  0.2833  0.1105
    1W        W39238   8.986  11.348   1.799 -0.0566  0.0034  0.0754
    1W        W39239   5.799   6.448   1.147  0.1860  0.1460 -0.1320
    1W        W39240  20.282   6.698   6.446  0.0153 -0.2576 -0.0310
    1W        W39241   6.547  18.647   8.553 -0.0123 -0.1867  0.0383
    1W        W39242   3.329  12.035   1.703 -0.0688  0.2070  0.1329
    1W        W39243  18.252   8.215   8.340 -0.1242  0.2199 -0.0305
    1W        W39244   3.658   2.114   0.218 -0.2804 -0.1441 -0.0613
    1W        W39245   2.927   8.452   0.412 -0.0030 -0.0833  0.2363
    1W        W39246   5.511  19.652   8.109 -0.1991 -0.0265 -0.4287
    1W        W39247   2.035   2.656   1.821 -0.2053 -0.0162 -0.1513
    1W        W39248  27.453  19.846   6.446  0.0125 -0.0929  0.2647
    1W        W39249  12.850  26.940   2.641 -0.0533 -0.2769  0.0153
    1W        W39250   6.380   5.406   8.504 -0.2676  0.1390  0.0795
    1W        W39251   2.151  28.920   2.288 -0.1210 -0.0057 -0.1710
    1W        W39252   9.290  13.369   7.503 -0.0235  0.1332 -0.1240
    1W        W39253  26.314   3.782   6.862  0.1382  0.1462 -0.1548
    1W        W39254   6.440   3.278   8.456  0.0627  0.1853 -0.0933
    1W        W39255  23.866  10.952   8.368 -0.3039 -0.0557  0.3307
    1W        W39256  12.826  28.025   1.024  0.1855 -0.0762 -0.2269
    1W        W39257  23.716   9.022   5.525 -0.0061 -0.1857  0.1357
    1W        W39258  19.711  21.599   1.845 -0.2257  0.0996  0.1710
    1W        W39259   6.988  19.169   7.048 -0.1233  0.2006 -0.2993
    1W        W39260  30.227   5.848   7.970 -0.2351 -0.1951  0.0242
    1W        W39261   8.364   2.155   9.161 -0.0390 -0.0383 -0.2177
    1W        W39262   0.178  25.455   8.199 -0.1005  0.3382  0.1199
    1W        W39263   8.414  29.484   7.109 -0.0865  0.3702  0.0737
    1W        W39264  16.517  29.429   7.783 -0.2282  0.1725 -0.1594
    1W        W39265   2.455  22.808   7.699 -0.2433 -0.0390 -0.1806
    1W        W39266  22.264   4.953   8.034  0.0894  0.1769 -0.2719
    1W        W39267  16.684  27.837   0.774  0.0008 -0.1921 -0.1727
    1W        W39268   7.187  15.878   1.113  0.0032  0.2260  0.1306
    1W        W39269   1.811  17.162   8.057  0.0559  0.1863  0.1187
    1W        W39270  13.789  19.023   8.406 -0.3406 -0.1947  0.4219
    1W        W39271  12.411  16.792   1.498 -0.1005  0.2442  0.3302
    1W        W39272  20.110  12.640   1.504  0.1167  0.1306 -0.0288
    1W        W39273   1.417   6.484   7.011  0.3052  0.1813 -0.0253
    1W        W39274  25.899  18.243   1.703  0.4155  0.2165  0.1861
    1W        W39275  15.547   4.281   0.409  0.0637 -0.0625  0.0308
    1W        W39276  27.550  25.510   1.725  0.1473  0.0613  0.1067
    1W        W39277  27.897  17.509   6.191 -0.0703 -0.2411 -0.1195
    1W        W39278  18.394  10.029   7.813 -0.0621 -0.0393  0.1230
    1W        W39279   6.242  20.590   0.943 -0.2583  0.3516  0.1196
    1W        W39280   8.731   1.046   6.640 -0.0789  0.3132 -0.1379
    1W        W39281  28.386  18.505   1.050 -0.1023  0.0460 -0.1379
    1W        W39282  13.961  14.476   0.752  0.0076  0.0117  0.0093
    1W        W39283  27.469  20.662   6.899 -0.2760 -0.0769 -0.1321
    1W        W39284  13.432  13.266   0.065 -0.0733 -0.2434 -0.2204
    1W        W39285   1.067  20.112   8.615  0.1988  0.0945 -0.1745
    1W        W39286  24.485  26.055   0.537 -0.1858  0.3226  0.0580
    1W        W39287  15.492   7.978   7.669 -0.3055  0.2094  0.1326
    1W        W39288  13.960  16.267   1.956 -0.0403 -0.2396 -0.1134
    1W        W39289  27.332  29.815   2.742  0.0721  0.1172  0.1259
    1W        W39290  19.497   3.096   8.874 -0.2708 -0.2801  0.2064
    1W        W39291   1.845  19.416   1.143  0.2894  0.0139 -0.0543
    1W        W39292   6.336  20.014   0.320 -0.1349 -0.1837  0.1552
    1W        W39293  12.221  20.916   2.015  0.0923  0.0485 -0.4890
    1W        W39294  15.479  16.476   1.276  0.0506  0.1861  0.1632
    1W        W39295  15.768  12.544   2.305  0.2167 -0.1728 -0.3036
    1W        W39296  23.281  11.439   9.249  0.1922 -0.4516  0.1756
    1W        W39297  21.482  27.951   8.558  0.1837 -0.0267  0.1947
    1W        W39298   6.133  27.678   3.028  0.3392 -0.1911 -0.3127
    1W        W39299  21.050  22.763   2.647  0.3410  0.0855  0.5225
    1W        W39300  20.980  26.314   7.531 -0.0430 -0.2438  0.1200
    1W        W39301  22.597  14.879   1.244 -0.2035 -0.1545 -0.1497
    1W        W39302  12.283  27.731   8.625  0.0838  0.3268  0.0433
    1W        W39303  27.702   3.611   7.476 -0.0182  0.0370  0.0356
    1W        W39304  12.833  28.505   1.835  0.0686  0.1577 -0.1098
    1W        W39305   1.499   8.808   1.242  0.3949 -0.1619  0.0136
    1W        W39306   3.731  10.267   6.924 -0.3060 -0.2466 -0.0614
    1W        W39307   1.985  23.046   7.738  0.0352 -0.2271 -0.1281
    1W        W39308  10.854   5.653   0.553 -0.1115 -0.0633 -0.1081
    1W        W39309   1.466  10.503   2.209  0.1789 -0.1667 -0.1321
    1W        W39310  22.388  17.694   7.639 -0.0247 -0.0341 -0.0467
    1W        W39311  28.156  23.312   8.260  0.3009  0.3446  0.3484
    1W        W39312  29.484   8.858   6.955 -0.0850  0.1436  0.2870
    1W        W39313  20.593  27.377   7.527  0.0103  0.3152 -0.0959
    1W        W39314  12.374   9.725   7.287  0.1562  0.2646  0.0073
    1W        W39315  30.192  19.890   0.491  0.1342 -0.2590  0.0185
    1W        W39316  21.779   8.092   7.886  0.0881 -0.4694  0.4830
    1W        W39317  17.292  13.907   3.120  0.0757 -0.1070 -0.0898
    1W        W39318   2.397  22.290   6.860 -0.1588  0.0211  0.1267
    1W        W39319   9.912  25.267   1.620 -0.0709  0.0414 -0.0702
    1W        W39320  25.396  13.279   7.656  0.2175 -0.0950  0.1924
    1W        W39321  11.572  19.138   2.516 -0.0968  0.2358  0.0960
    1W        W39322  29.879   8.363   7.474 -0.0156  0.3211 -0.3771
    1W        W39323  25.576   5.907   3.453  0.2446  0.0639 -0.2238
    1W        W39324  19.418  23.689   1.434  0.0973  0.0242  0.0019
    1W        W39325   0.415  24.879   2.711 -0.0664 -0.1084 -0.4739
    1W        W39326   8.600  24.419   0.373  0.1438 -0.0691 -0.1854
    1W        W39327  29.517  12.605   1.213 -0.3371  0.1062  0.2945
    1W        W39328  13.742   4.708   7.709 -0.4122 -0.0422 -0.0906
    1W        W39329   8.164  13.099   2.569  0.1134  0.1024  0.0012
    1W        W39330  18.587   9.269   2.651 -0.1238  0.2168  0.0432
    1W        W39331  19.740   6.198   8.069  0.3899 -0.0005 -0.0586
    1W        W39332  23.568   4.993   8.331 -0.0044 -0.0123  0.0932
    1W        W39333  10.839  21.297   1.406  0.1915 -0.1464 -0.5363
    1W        W39334  17.362   2.046   7.659 -0.1162 -0.1914  0.0498
    1W        W39335  20.493  11.194   7.755  0.1500 -0.2015 -0.1446
    1W        W39336  26.915  15.295   0.913  0.0259 -0.0599 -0.0508
    1W        W39337  13.807  30.286   8.842 -0.0785  0.2762 -0.3473
    1W        W39338  25.162  30.344   3.060  0.0367  0.1110 -0.2846
    1W        W39339  19.748  21.596   6.281 -0.5067 -0.0925  0.2793
    1W        W39340  23.730  25.068   8.232  0.1663 -0.1378 -0.0079
    1W        W39341  24.652   9.944   8.919 -0.0580 -0.1495  0.0329
    1W        W39342  22.501  21.026   8.527 -0.2237  0.2674  0.1941
    1W        W39343   4.743  15.235   7.945 -0.2736  0.1834 -0.2339
    1W        W39344  21.127   8.246   1.729  0.0953 -0.0257 -0.1459
    1W        W39345   3.354  12.878   8.497 -0.1499 -0.1403  0.1161
    1W        W39346  27.568  11.191   2.139  0.4899  0.2552  0.2606
    1W        W39347  10.847  14.197   8.925 -0.0487  0.0132  0.2498
    1W        W39348  25.177  11.734   1.143  0.0229  0.0621 -0.3482
    1W        W39349  14.893   5.990   0.645  0.1748 -0.3544 -0.2004
    1W        W39350   5.834  19.714   7.734 -0.3133 -0.2369 -0.0629
    1W        W39351  18.981  12.231   6.374  0.2328  0.0873  0.0329
    1W        W39352   6.114   1.995   0.646 -0.2357  0.1921  0.1547
    1W        W39353  24.951   0.391   1.301  0.0613  0.3193  0.3161
    1W        W39354  24.557   8.763   9.204 -0.3065  0.0017 -0.0373
    1W        W39355  11.709  17.865   9.102 -0.0907 -0.0250 -0.0157
    1W        W39356  27.238   5.142   9.041  0.0210 -0.2820 -0.3580
    1W        W39357  10.602  19.759   0.091  0.0251  0.1912  0.0880
    1W        W39358  18.258  20.044   7.367 -0.2331  0.0236  0.0939
    1W        W39359   2.566  24.568   7.754  0.1155 -0.1229  0.0899
    1W        W39360  10.640  29.441   7.202  0.1465 -0.0760 -0.1459
    1W        W39361   8.889   2.272   8.693  0.0120 -0.1494  0.1368
    1W        W39362   1.976  25.548   2.348  0.2952 -0.0303 -0.2228
    1W        W39363   4.679  12.467   7.219  0.0827  0.0169 -0.1422
    1W        W39364   3.744  30.115   2.752 -0.1127 -0.0388 -0.1986
    1W        W39365  24.392  15.108   8.493 -0.3752 -0.0903 -0.3761
    1W        W39366  29.467   7.002   0.229  0.2217 -0.1873 -0.4017
    1W        W39367  23.524  11.278   6.556  0.0295  0.0737 -0.1123
    1W        W39368  22.996   6.269   7.988 -0.2529 -0.0974 -0.2098
    1W        W39369  21.162  10.113   6.343 -0.3009 -0.2475  0.1572
    1W        W39370  16.502   6.176   0.672  0.3252  0.1165  0.2164
    1W        W39371  17.217  18.711   7.633  0.0175  0.3237  0.0827
    1W        W39372  30.114   2.891   7.609 -0.0775  0.1308 -0.1665
    1W        W39373  25.524  18.029   8.354  0.1984 -0.1015  0.0460
    1W        W39374  27.815  26.865   1.744  0.0311 -0.1384 -0.1235
    1W        W39375  18.384  17.169   7.987 -0.0430  0.1546 -0.0471
    1W        W39376  25.232  17.467   0.591 -0.1070 -0.1611  0.0311
    1W        W39377  17.093  20.169   0.574  0.0114  0.0083  0.3884
    1W        W39378  15.143  13.832   2.189  0.4687  0.1910 -0.1106
    1W        W39379  10.475  17.349   7.822 -0.1236  0.0740  0.1226
    1W        W39380  19.228  19.846   0.620 -0.0626  0.1707 -0.0104
    1W        W39381  21.759   7.176   8.415  0.0034 -0.0747  0.1830
    1W        W39382  18.872  10.182   0.823  0.1433  0.3383 -0.1212
    1W        W39383  26.964  26.684   0.258  0.0959 -0.2057 -0.1036
    1W        W39384  16.411  17.603   7.527 -0.3381  0.1739 -0.1560
    1W        W39385   0.112  10.181   1.033  0.0161  0.1680  0.1461
    1W        W39386  11.684  29.110   1.302  0.0756 -0.1182 -0.1170
    1W        W39387   6.349  14.128   6.921 -0.1137  0.1505 -0.2554
    1W        W39388  25.121   3.550   8.117 -0.3434 -0.1222 -0.0051
    1W        W39389  13.766   7.737   2.114 -0.0382  0.2218  0.2671
    1W        W39390   2.916   4.121   6.087 -0.1440  0.3561  0.1827
    1W        W39391  20.488  14.370   6.540  0.0520 -0.0367 -0.2033
    1W        W39392  23.504   5.610   0.716 -0.3703 -0.1387  0.3070
    1W        W39393  23.914  11.612   9.143 -0.2164  0.2782 -0.1042
    1W        W39394  15.486  13.800   3.791  0.1066 -0.0662 -0.1604
    1W        W39395  17.543   4.394   1.843  0.1066  0.2580  0.2529
    1W        W39396  19.672  13.670   1.822  0.0301  0.0907  0.3051
    1W        W39397  22.981  20.319   8.094 -0.1674 -0.0227  0.0161
    1W        W39398  24.979  19.636   8.002 -0.0788  0.1661  0.0541
    1W        W39399  10.299  22.958   1.513  0.1366 -0.0105  0.0938
    1W        W39400  15.333   5.156   0.721 -0.0165  0.3210  0.1463
    1W        W39401  24.102  11.837   1.061  0.1098 -0.1052  0.0909
    1W        W39402   0.427   3.721   6.636  0.2801 -0.0729  0.1003
    1W        W39403   2.584  24.972   2.695 -0.3515 -0.0842 -0.1891
    1W        W39404   5.449  12.681   1.879  0.0528 -0.2332  0.0516
    1W        W39405  26.091   9.248   7.550 -0.1988  0.0504 -0.0160
    1W        W39406  14.231   6.764   7.924 -0.0422  0.1471  0.1224
    1W        W39407   8.331  29.391   2.594  0.0048  0.1345 -0.1231
    1W        W39408   3.078  19.869   5.893  0.1177 -0.1528  0.0194
    1W        W39409  10.962   6.818   0.996 -0.1999 -0.2333 -0.1123
    1W        W39410  15.756  30.227   1.983  0.0320 -0.2869  0.1660
    1W        W39411  24.493  29.624   8.502  0.1158 -0.0591 -0.0459
    1W        W39412  22.132   4.202   9.261 -0.0842 -0.1126  0.3729
    1W        W39413   3.489   7.983   0.484  0.0403 -0.0220 -0.0043
    1W        W39414  26.827  27.550   1.089  0.0518  0.2709  0.3056
    1W        W39415   4.168  13.849   7.312 -0.2394 -0.0392  0.2903
    1W        W39416  18.195  12.226   7.964  0.0281  0.0282  0.0533
    1W        W39417  10.838  12.989   0.815  0.1500  0.2908 -0.1447
    1W        W39418  29.912  13.778   1.816  0.0722 -0.1383  0.2761
    1W        W39419  22.336  29.135   2.615 -0.0423 -0.0541 -0.1508
    1W        W39420  23.947  28.441   8.937 -0.0585  0.0134  0.0020
    1W        W39421   9.030  19.210   7.269 -0.1511  0.2544 -0.1239
    1W        W39422  13.509   8.116   1.866 -0.4890  0.0142  0.0266
    1W        W39423   4.478   7.167   6.296 -0.2580 -0.0035 -0.0423
    1W        W39424  21.811  23.052   0.651 -0.2961  0.0643  0.0124
    1W        W39425   3.297  28.305   1.005 -0.2041 -0.2431  0.0922
    1W        W39426  18.015  24.978   1.357  0.1652  0.0353 -0.2946
    1W        W39427  14.396  13.259   1.718  0.2665 -0.0084 -0.0857
    1W        W39428  26.713   9.604   7.109 -0.2365  0.1455 -0.0321
    1W        W39429   5.856  18.283   0.633 -0.1034  0.3725 -0.1909
    1W        W39430  30.221   1.157   3.859  0.1179 -0.1181  0.0122
    1W        W39431  18.291  19.093   7.819  0.1008  0.2984 -0.3585
    1W        W39432   6.168   1.531   1.154  0.0752 -0.1259  0.1156
    1W        W39433  10.190  26.950   2.468  0.1002 -0.5215 -0.0634
    1W        W39434  26.281  17.315   0.523  0.2778 -0.0123 -0.1725
    1W        W39435  21.426   2.933   2.587 -0.0162  0.0436  0.0030
    1W        W39436  21.769  29.986   0.114  0.1970 -0.0730 -0.0081
    1W        W39437  10.959   6.213   6.443 -0.0658 -0.0298  0.1398
    1W        W39438  10.756  28.405   2.575  0.1171  0.1033  0.1302
    1W        W39439   3.987   7.870   1.366  0.2148 -0.0199  0.2899
    1W        W39440  13.409  20.776   7.070 -0.1498 -0.2710 -0.0696
    1W        W39441  20.108  23.000   6.738 -0.2159  0.0007 -0.1414
    1W        W39442  23.039  30.208   1.403  0.3456 -0.1246  0.3254
    1W        W39443  16.190  24.812   1.625  0.0665 -0.1954 -0.3844
    1W        W39444  16.026   0.462   7.064 -0.2637  0.1708  0.0857
    1W        W39445  28.564  21.799   6.353  0.4255  0.0227  0.0016
    1W        W39446   2.488   5.209   1.621 -0.0823 -0.1070  0.0441
    1W        W39447  11.568  14.419   7.834 -0.0208 -0.0779  0.1516
    1W        W39448   1.520  28.981   1.663  0.0480 -0.1063  0.0411
    1W        W39449   1.743   5.112   7.352  0.1244 -0.1174 -0.0860
    1W        W39450   4.264   7.491   1.076  0.2054 -0.0779 -0.0260
    1W        W39451  14.228   7.330   1.446 -0.0931 -0.0191 -0.1009
    1W        W39452  28.368  28.955   3.162  0.3458  0.1026  0.3554
    1W        W39453   6.163   8.370   8.163  0.0978 -0.3060  0.0712
    1W        W39454  22.733  20.519   1.135 -0.1621 -0.3750 -0.1302
    1W        W39455  27.914  28.562   0.128  0.1440  0.2388 -0.2416
    1W        W39456   2.926   3.345   3.090  0.1612 -0.1005  0.0582
    1W        W39457  25.672  14.633   1.192 -0.1179 -0.0259  0.1860
    1W        W39458  25.790  28.612   8.582 -0.5967 -0.1296 -0.2559
    1W        W39459  25.871   6.765   2.571  0.1342 -0.0885  0.2124
    1W        W39460  16.961  12.186   0.687  0.2962  0.0029 -0.0868
    1W        W39461  28.333   0.389   2.803  0.1484  0.0331  0.1256
    1W        W39462   5.377  16.484   1.014  0.2047  0.1395 -0.0420
    1W        W39463  10.881  26.837   0.856 -0.0281 -0.0113  0.2678
    1W        W39464  10.702   7.884   8.043  0.2261 -0.2285  0.0879
    1W        W39465  19.954  19.938   0.097 -0.1927  0.2125  0.0106
    1W        W39466  15.055  18.309   1.084 -0.0401  0.0677 -0.1297
    1W        W39467  24.353   0.174   2.492  0.2112 -0.2976 -0.3242
    1W        W39468  22.801  20.087   7.280 -0.0327  0.1207 -0.0250
    1W        W39469  13.519   9.299   8.641 -0.0013 -0.0104  0.1892
    1W        W39470   8.799  10.764   7.025 -0.0760 -0.0393 -0.1826
    1W        W39471  18.877  13.903   6.919 -0.7933 -0.2235  0.1344
    1W        W39472  16.792  17.498   2.563  0.0863  0.1940 -0.1139
    1W        W39473   5.963  29.212   0.536  0.2690  0.2205  0.1451
    1W        W39474  29.017   0.663   7.976  0.2632  0.0245 -0.2508
    1W        W39475   7.298  21.215   7.771 -0.0929  0.2473  0.2402
    1W        W39476  19.177  13.879   8.914 -0.1393 -0.2159  0.1464
    1W        W39477  20.838   9.400   6.721 -0.2496 -0.0491  0.2054
    1W        W39478  20.916   2.039   0.556  0.0560  0.0037 -0.4560
    1W        W39479  26.123  10.831   8.474  0.0648 -0.1021 -0.2448
    1W        W39480   1.097  13.963   6.863 -0.2828 -0.1350 -0.1466
    1W        W39481  25.423   2.199   0.663 -0.4356 -0.0810 -0.0295
    1W        W39482  19.451   2.646   7.959  0.4640 -0.0153  0.0525
    1W        W39483  17.528   5.996   8.639 -0.2342 -0.1806 -0.1552
    1W        W39484   0.400   4.063   2.486  0.1830 -0.3475  0.1871
    1W        W39485  22.713  19.182   6.279 -0.0253  0.0826 -0.1786
    1W        W39486   8.471   2.941   7.592  0.2605  0.1696 -0.0784
    1W        W39487  25.745  19.204   6.771 -0.1512 -0.2869  0.0853
    1W        W39488   4.312  11.730   0.127 -0.1678 -0.1386  0.0912
    1W        W39489   7.093  18.342   6.802  0.0143 -0.0205  0.1109
    1W        W39490  17.352  13.858   2.432 -0.4662 -0.0886  0.3232
    1W        W39491  28.876  21.999   1.745 -0.1646 -0.0013 -0.2030
    1W        W39492   5.385   1.430   7.946 -0.0578  0.1096  0.0108
    1W        W39493  12.925  21.298   6.664  0.0393  0.0243 -0.3860
    1W        W39494   0.870   0.775   0.210  0.0097  0.1364 -0.0841
    1W        W39495   4.983   5.276   0.105 -0.0508 -0.0154  0.0265
    1W        W39496  10.779  17.578   8.673 -0.2596 -0.0765 -0.3717
    1W        W39497  23.316   3.959   7.243 -0.1949 -0.0923  0.0215
    1W        W39498  21.534   9.775   6.179  0.0770 -0.1711 -0.2975
    1W        W39499   4.847  28.131   7.782  0.1311 -0.3057  0.2421
    1W        W39500  22.097  21.302   0.695 -0.1309  0.0412 -0.0654
    1W        W39501  12.993  15.686   7.267  0.0167 -0.2076 -0.2277
    1W        W39502  27.215   3.451   1.605 -0.2087 -0.2267  0.2740
    1W        W39503  29.468   6.541   9.165 -0.1878  0.0771  0.1204
    1W        W39504  19.774   0.212   0.238 -0.1757  0.3875 -0.1724
    1W        W39505   7.934   9.818   7.643 -0.4372  0.1598  0.3540
    1W        W39506   2.131  27.048   1.662 -0.0619 -0.0720  0.0402
    1W        W39507  28.460  28.027   2.377  0.1128 -0.3361  0.0088
    1W        W39508  15.335  26.215   0.765 -0.0380 -0.0474  0.0604
    1W        W39509  20.353  12.939   0.301 -0.0211  0.1515  0.1144
    1W        W39510   7.862   6.994   2.052 -0.1688  0.0648  0.1073
    1W        W39511  27.733   9.058   2.034 -0.1585  0.0466  0.0023
    1W        W39512   5.072   0.880   1.478  0.1363 -0.1978  0.0893
    1W        W39513  15.205  16.424   0.772 -0.2739  0.2154  0.2132
    1W        W39514  17.463  16.162   2.346 -0.2403 -0.3734  0.0401
    1W        W39515   8.261   1.919   7.445 -0.1872 -0.1247  0.2156
    1W        W39516   4.180   5.008   1.141 -0.1460  0.0129  0.1740
    1W        W39517   6.921  18.642   7.153 -0.0820 -0.0803 -0.0779
    1W        W39518  15.784   6.081   7.032  0.1513 -0.0608 -0.4099
    1W        W39519  22.647  11.602   5.386  0.1551 -0.0058  0.2001
    1W        W39520   7.512  29.504   1.880  0.2734  0.1826 -0.0426
    1W        W39521  21.358   8.394   8.618 -0.0179 -0.0399 -0.2516
    1W        W39522  14.724  15.644   7.334  0.0472 -0.2877  0.1181
    1W        W39523   2.760   4.335   3.007  0.0756  0.2078  0.0666
    1W        W39524  10.301   4.211   6.441 -0.1140 -0.1122  0.0111
    1W        W39525  13.642  28.532   3.633 -0.0531  0.0361  0.1343
    1W        W39526  16.216  22.300   0.489 -0.1115 -0.1697  0.0084
    1W        W39527  10.172  10.112   7.732  0.0178  0.0786 -0.0398
    1W        W39528  29.681   5.904   2.043 -0.1905  0.2605 -0.0824
    1W        W39529   9.656  12.026   7.268 -0.4549  0.0878 -0.0100
    1W        W39530   3.295  10.465   6.693  0.0325 -0.1659  0.1622
    1W        W39531  17.980  29.033   7.443  0.0953 -0.0192  0.1234
    1W        W39532   7.075  21.540   0.466 -0.2099  0.0007  0.1161
    1W        W39533  22.888  22.154   2.396  0.1304  0.0308  0.2695
    1W        W39534  11.801  29.670   0.622  0.0386  0.0200  0.3118
    1W        W39535  29.044  20.109   7.820  0.3651  0.3188 -0.0335
    1W        W39536  29.500   2.313   6.834 -0.1672  0.3074 -0.0782
    1W        W39537  15.437  18.777   8.740  0.2221 -0.2031  0.0773
    1W        W39538  16.680  14.923   8.213 -0.2705 -0.2127 -0.2200
    1W        W39539  12.977  19.654   0.699  0.2902 -0.1882  0.0197
    1W        W39540  13.647   4.517   2.985  0.0155 -0.3596  0.2619
    1W        W39541  16.183  22.664   8.433 -0.0183  0.1395 -0.0922
    1W        W39542   4.690   2.910   1.609 -0.0715 -0.0202 -0.1934
    1W        W39543  26.766  17.236   8.756  0.5138  0.1013 -0.3213
    1W        W39544   4.598  17.727   6.745 -0.0158  0.2657  0.0633
    1W        W39545   6.998   1.846   0.414 -0.2308 -0.1139  0.1012
    1W        W39546   5.899  29.251   2.272  0.2508  0.0198 -0.3400
    1W        W39547  30.347  29.099   3.382  0.0508 -0.1837 -0.1900
    1W        W39548  25.340  25.132   1.698 -0.2714 -0.2996 -0.1952
    1W        W39549   0.213   4.058   3.672 -0.0959  0.0381  0.0971
    1W        W39550  23.034  13.777   1.476 -0.0120  0.0955  0.3178
    1W        W39551   7.923   5.883   0.962  0.0995  0.1907 -0.3442
    1W        W39552  11.338   7.935   8.911  0.0962 -0.0785  0.4153
    1W        W39553   2.453   7.364   7.163 -0.0803 -0.0654 -0.0847
    1W        W39554  14.675   7.295   6.804 -0.0169 -0.1107  0.1459
    1W        W39555  23.949   4.780   1.869 -0.3276 -0.2455  0.0281
    1W        W39556  20.117  22.414   6.655 -0.1169 -0.0897 -0.0396
    1W        W39557   9.155  13.049   7.100 -0.3436  0.1110  0.0460
    1W        W39558   4.071  17.412   1.480 -0.1754  0.4462  0.4244
    1W        W39559  24.530  15.807   0.974  0.0263  0.3922 -0.2050
    1W        W39560   4.446  24.995   2.100  0.0245  0.0604  0.0452
    1W        W39561   0.721  24.571   1.847  0.1317  0.0515  0.1340
    1W        W39562  20.871   5.412   6.353  0.0525  0.0946 -0.1308
    1W        W39563   9.750  17.992   8.481 -0.4300  0.2680 -0.3113
    1W        W39564   9.473  15.729   9.074  0.1123  0.2664  0.0349
    1W        W39565   3.343  26.550   0.117  0.1154  0.4339 -0.1988
    1W        W39566  29.536   9.511   2.140  0.0773 -0.0646  0.1242
    1W        W39567  28.647  25.625   2.254 -0.0314 -0.2492 -0.0817
    1W        W39568  13.531   5.280   8.692  0.4883 -0.0070 -0.2129
    1W        W39569  20.332  22.478   8.695 -0.0549 -0.0851  0.0791
    1W        W39570  11.555  24.214   6.686 -0.1292  0.1629  0.0665
    1W        W39571  26.753   8.907   1.298 -0.0767  0.0732 -0.2244
    1W        W39572  17.128   8.987   8.835 -0.1565 -0.4474 -0.2286
    1W        W39573   2.223  16.837   1.479 -0.0978  0.1030  0.1226
    1W        W39574  27.444  19.570   8.996  0.0980 -0.2175  0.0064
    1W        W39575  18.961  13.898   2.379 -0.0929 -0.0300  0.1301
    1W        W39576   1.786  28.243   8.255  0.2902  0.0759 -0.2938
    1W        W39577  22.749   3.968   2.074 -0.0205  0.0906 -0.0780
    1W        W39578  17.947  19.004   6.833  0.3704  0.1503  0.0816
    1W        W39579  17.280  11.965   2.215  0.1134  0.2255  0.1713
    1W        W39580  23.308  19.472   1.990  0.0020  0.2396 -0.3493
    1W        W39581  20.670  16.014   7.078  0.1105 -0.3332  0.2985
    1W        W39582  16.620   7.083   8.905  0.0599 -0.0415  0.3223
    1W        W39583  19.480   4.327   8.184  0.0132  0.2038  0.0417
    1W        W39584  17.817   0.618   8.932  0.2785  0.0939 -0.3008
    1W        W39585  12.414   4.727   7.087 -0.0369 -0.0796 -0.0088
    1W        W39586   9.042   7.418   7.722 -0.1344 -0.3191 -0.0195
    1W        W39587  29.337   0.014   0.076 -0.0395  0.0953 -0.3198
    1W        W39588  21.790  26.216   6.376 -0.2710  0.2327  0.3746
    1W        W39589  10.221  11.094   8.442  0.0584  0.0647  0.0021
    1W        W39590  21.757  16.099   5.740  0.2312  0.0527 -0.3826
    1W        W39591  17.175  23.383   7.351 -0.2769 -0.2975  0.0328
    1W        W39592  20.409   0.736   0.810  0.2016 -0.0777 -0.1111
    1W        W39593   8.896   3.144   5.864  0.1779  0.2274 -0.0532
    1W        W39594  15.764  18.017   6.982  0.1622 -0.0430 -0.3644
    1W        W39595  13.171  28.834   7.268  0.3496  0.1280 -0.0045
    1W        W39596   6.924  19.110   2.134 -0.0987 -0.1628  0.1144
    1W        W39597  24.931   7.488   6.749  0.2307 -0.2181  0.1109
    1W        W39598  18.083  11.985   5.687 -0.2751  0.4545  0.1454
    1W        W39599  30.260  14.925   7.877  0.2887  0.0879  0.2661
    1W        W39600  30.348  29.303   8.361  0.2038  0.3509  0.0098
    1W        W39601  17.790   1.533   9.186  0.3849  0.2505  0.1194
    1W        W39602  13.893   4.993   6.252 -0.0458 -0.1697 -0.2621
    1W        W39603   6.343  14.949   7.942 -0.1614  0.0054 -0.0974
    1W        W39604  20.006   0.222   8.941 -0.0850 -0.1078 -0.2578
    1W        W39605  20.450  19.323   0.848  0.0606 -0.2863  0.1756
    1W        W39606  15.407  25.037   1.465  0.2949  0.0176 -0.0017
    1W        W39607  13.409   6.719   7.379 -0.2172 -0.2753  0.0216
    1W        W39608  27.798   2.173   1.670  0.2571 -0.0769  0.3413
    1W        W39609  13.229   2.787   0.417  0.0950 -0.3928 -0.2195
    1W        W39610  26.784  26.247   7.061 -0.1486 -0.0092 -0.1166
    1W        W39611  23.626  18.434   7.596 -0.3115  0.0247  0.0115
    1W        W39612  13.505   1.951   2.608  0.0469 -0.1202 -0.2214
    1W        W39613   1.615   8.516   0.354  0.1008  0.1841  0.0931
    1W        W39614  13.096  24.131   8.723  0.0765 -0.2840  0.3166
    1W        W39615  12.660  16.911   6.731  0.2781 -0.0578 -0.2363
    1W        W39616  26.180  21.923   0.896  0.3724 -0.1249 -0.0217
    1W        W39617  15.818   4.397   8.574 -0.0450  0.1276 -0.0760
    1W        W39618  26.845   8.288   6.837 -0.4058  0.1447  0.1303
    1W        W39619   4.982   5.359   1.433 -0.0945  0.0092  0.0551
    1W        W39620  11.780   7.967   6.463 -0.4205 -0.2695  0.2318
    1W        W39621  18.765   0.684   0.799 -0.1130  0.0761  0.0433
    1W        W39622  19.347   0.331   8.431 -0.1022 -0.3028  0.2210
    1W        W39623   7.962  15.527   9.121 -0.0067 -0.3125 -0.1482
    1W        W39624  11.477   5.448   7.119 -0.1711 -0.1160  0.3983
    1W        W39625  16.767  22.185   0.413 -0.3367 -0.3917 -0.3367
    1W        W39626   9.213  25.913   2.576 -0.1738 -0.0802  0.0819
    1W        W39627   8.409  16.274   9.192  0.0569 -0.0884 -0.3139
    1W        W39628  27.012   2.676   0.573  0.2926 -0.1863  0.0554
    1W        W39629  26.664  13.253   0.663  0.0120 -0.3573 -0.0160
    1W        W39630  16.399   6.450   8.504  0.2939  0.0786  0.0631
    1W        W39631  24.502  17.804   8.621  0.1256  0.1022 -0.3467
    1W        W39632  22.001  19.919   6.422  0.1437  0.0618  0.1057
    1W        W39633  11.028   4.583   0.913 -0.0896 -0.0317 -0.1138
    1W        W39634  17.619  19.860   0.426 -0.2009 -0.0305 -0.0067
    1W        W39635   2.680   8.985   8.364 -0.0351  0.2995  0.0718
    1W        W39636  22.478   8.844   1.021 -0.2263 -0.1697  0.1664
    1W        W39637  22.436  26.916   9.140  0.0851 -0.1533 -0.1018
    1W        W39638   6.551  20.574   7.947 -0.1247 -0.0924  0.2156
    1W        W39639   2.046  11.550   8.885  0.1374  0.1167  0.0897
    1W        W39640  25.571   6.068   2.937 -0.2598  0.2110 -0.0602
    1W        W39641  27.112   2.238   1.983 -0.3444 -0.2525 -0.1196
    1W        W39642   9.862  16.373   7.598  0.2061 -0.0244 -0.1066
    1W        W39643  17.421   7.724   6.252  0.0057  0.2930  0.0189
    1W        W39644  24.792  16.265   6.758  0.0893  0.1689  0.0556
    1W        W39645  10.473   6.959   1.789  0.0737  0.2339  0.2851
    1W        W39646  20.997  10.733   1.297 -0.0770 -0.1304  0.2553
    1W        W39647  14.765   5.621   5.556 -0.0205 -0.2622  0.2991
    1W        W39648  28.190  27.248   1.738 -0.0109 -0.0183 -0.0857
    1W        W39649  18.162   1.873   0.294  0.0732  0.1445 -0.0163
    1W        W39650  27.564   5.320   0.120  0.0138 -0.0272  0.0781
    1W        W39651  11.746   0.068   7.965 -0.2082  0.1857  0.1318
    1W        W39652   7.364  13.770   7.268  0.2713  0.0205  0.0751
    1W        W39653   1.271   3.228   1.849  0.1295 -0.0955 -0.0757
    1W        W39654  14.658  20.133   0.548 -0.2002  0.1150 -0.2107
    1W        W39655   9.785   8.531   6.134  0.3979 -0.0371  0.0872
    1W        W39656  21.448  18.544   8.645 -0.4281 -0.5217  0.1160
    1W        W39657  22.110  29.458   0.491  0.0424 -0.1292 -0.0399
    1W        W39658   3.524  29.545   7.728  0.1415 -0.1873 -0.0933
    1W        W39659  19.022  23.778   6.193 -0.1170  0.1319 -0.1909
    1W        W39660  22.546  15.651   5.835  0.1678  0.1882 -0.1886
    1W        W39661  22.430  18.756   8.376 -0.2346 -0.0774 -0.0989
    1W        W39662  10.875   0.866   0.010 -0.2332 -0.0840 -0.0258
    1W        W39663  26.200   8.255   1.972 -0.0096 -0.1312  0.1010
    1W        W39664  23.883  27.230   8.285  0.2630 -0.1086 -0.0822
    1W        W39665  14.531  19.493   7.947 -0.1106  0.2324  0.0205
    1W        W39666  18.235   3.027   0.948  0.0288  0.0749 -0.1036
    1W        W39667   2.411  11.956   8.223 -0.2370 -0.0256 -0.0828
    1W        W39668  15.587   3.652   7.076  0.0730  0.3693  0.0019
    1W        W39669  23.139  24.841   0.162  0.0368  0.0553 -0.1255
    1W        W39670  23.042   4.791   8.138 -0.2840 -0.1601 -0.1336
    1W        W39671  20.976   7.811   1.339  0.0195 -0.0672 -0.2509
    1W        W39672   3.120  18.915   7.581 -0.0116  0.1045  0.1477
    1W        W39673   0.632   9.826   9.058 -0.0377 -0.2987  0.1975
    1W        W39674  11.213  26.085   9.126 -0.1863  0.2526 -0.0915
    1W        W39675  13.461   8.965   6.145 -0.1873 -0.0235  0.3143
    1W        W39676  10.137  21.389   0.852 -0.0131  0.0182 -0.0218
    1W        W39677   4.414  14.284   7.384  0.4649  0.0951  0.2861
    1W        W39678  10.982  23.104   0.289 -0.2262  0.0586 -0.2917
    1W        W39679  12.661   5.500   7.228  0.1374 -0.3720  0.4439
    1W        W39680   3.546  26.934   0.451 -0.3189  0.0442 -0.0448
    1W        W39681  19.144  18.871   8.628  0.1383  0.1014  0.0843
    1W        W39682   2.264  20.428   0.645 -0.1504  0.2038 -0.0520
    1W        W39683  18.878   0.056   7.641  0.2225  0.1279  0.1718
    1W        W39684  27.554  29.998   8.569  0.1629  0.1042 -0.0377
    1W        W39685  18.671  29.883   8.456 -0.3960  0.2141 -0.2046
    1W        W39686  19.389  13.961   8.451  0.1413 -0.0384  0.0644
    1W        W39687   1.272  18.085   8.511  0.1554  0.3850 -0.0401
    1W        W39688  21.538   7.013   2.765  0.2587  0.2039  0.0811
    1W        W39689   4.614  25.269   6.899 -0.1468  0.0480 -0.1420
    1W        W39690  16.976  21.359   8.259  0.0294  0.0704 -0.0298
    1W        W39691   9.187  11.522   8.373 -0.1531  0.4751  0.0827
    1W        W39692  11.452  13.106   1.234 -0.1742  0.1712 -0.3361
    1W        W39693  17.168   7.302   7.932  0.0789  0.2501 -0.5331
    1W        W39694   1.876  27.828   0.355  0.1943  0.1503 -0.1341
    1W        W39695  22.385   4.923   1.968  0.2775  0.3610  0.0039
    1W        W39696  25.527  13.602   8.047 -0.0821 -0.0641  0.1275
    1W        W39697   9.037  13.287   0.270 -0.1343  0.1553 -0.3057
    1W        W39698  18.783  20.886   8.178 -0.0764  0.1154 -0.0304
    1W        W39699  15.366  13.223   7.653  0.0858 -0.0951 -0.1239
    1W        W39700  25.822  14.793   0.371 -0.1384  0.2067 -0.1974
    1W        W39701  11.861   3.308   1.822  0.3328  0.2297  0.0912
    1W        W39702  14.026  16.194   7.699 -0.1902 -0.1222 -0.2342
    1W        W39703  29.969  17.371   6.041 -0.0605  0.1615 -0.1247
    1W        W39704  16.588  12.477   8.639  0.1495  0.0600 -0.2087
    1W        W39705   4.994  23.426   7.109  0.0330  0.0433 -0.2656
    1W        W39706  13.012  17.185   0.951  0.2155 -0.0584  0.1254
    1W        W39707   1.693   2.868   7.533  0.2970 -0.0249 -0.0461
    1W        W39708   8.030  14.703   2.027 -0.0024 -0.2966 -0.3120
    1W        W39709  19.377  20.141   8.338  0.0828 -0.1898  0.0858
    1W        W39710   6.780   3.874   4.152  0.1327 -0.0310  0.1324
    1W        W39711   1.750  29.755   0.805  0.0127  0.2774  0.1113
    1W        W39712  22.107  21.178   8.211 -0.1795  0.1578  0.0933
    1W        W39713   2.794   8.317   6.604  0.3192  0.0458 -0.1395
    1W        W39714  15.603  21.739   1.854 -0.2105  0.0108 -0.3467
    1W        W39715  17.460   9.562   2.220  0.0690 -0.2378  0.2191
    1W        W39716   3.206  16.151   0.199 -0.2287 -0.1226  0.1245
    1W        W39717  15.316  16.597   8.416 -0.1299 -0.1371  0.2448
    1W        W39718  13.569  26.619   2.227  0.0053  0.2625  0.0333
    1W        W39719  10.305  16.755   8.056 -0.4076  0.2835 -0.0614
    1W        W39720   4.517  10.077   0.312  0.0144 -0.3055 -0.2162
    1W        W39721  27.989  21.182   0.444  0.1706 -0.1175 -0.1109
    1W        W39722  13.801  27.726   7.019 -0.3021 -0.1208  0.1507
    1W        W39723  11.171  17.570   7.215 -0.2066 -0.3304  0.1419
    1W        W39724  13.930   3.955   7.627  0.0380 -0.1065 -0.0562
    1W        W39725  18.884  25.810   2.126  0.1943 -0.2646 -0.3040
    1W        W39726   2.507  25.083   2.003 -0.0922  0.0993  0.2427
    1W        W39727  15.597   7.190   7.513  0.1699 -0.3282 -0.0467
    1W        W39728   1.304  11.554   7.351 -0.0920  0.0953 -0.0464
    1W        W39729  24.724   0.747   3.247  0.0148  0.1428  0.1250
    1W        W39730   2.506   0.464   8.611  0.1300 -0.0349  0.1713
    1W        W39731  10.960   6.909   1.526 -0.1349 -0.1162  0.0984
    1W        W39732  23.450  13.676   0.549  0.3014 -0.0718  0.0124
    1W        W39733  10.942   9.602   0.503  0.1579  0.2565 -0.0670
    1W        W39734  27.151  23.759   0.861 -0.1703 -0.2826 -0.2311
    1W        W39735  20.867   7.206   8.066  0.0295  0.0734  0.1838
    1W        W39736   3.019  26.788   0.428  0.0082 -0.0276 -0.0032
    1W        W39737  14.243   3.003   2.494 -0.2919 -0.1717 -0.3414
    1W        W39738   4.123   8.934   7.458  0.0385 -0.1350 -0.0972
    1W        W39739  21.851   3.132   0.774  0.1123 -0.1890 -0.2766
    1W        W39740  14.397  18.179   1.134  0.0285 -0.0997 -0.0525
    1W        W39741   8.942  11.801   1.432 -0.0799 -0.0969  0.0175
    1W        W39742   0.023   4.227   7.900 -0.1215  0.1785 -0.0909
    1W        W39743   0.994   4.765   1.945 -0.2546  0.0048  0.0657
    1W        W39744  11.769  20.114   7.322 -0.2777 -0.0003 -0.2033
    1W        W39745  17.871  16.854   6.236 -0.1235  0.0689  0.0126
    1W        W39746  28.665   9.076   7.361 -0.0246 -0.1491 -0.1104
    1W        W39747  12.533  26.445   0.903 -0.0459  0.2916  0.2500
    1W        W39748  22.975  15.149   0.857 -0.1745  0.1930 -0.0897
    1W        W39749  11.268   5.529   7.549  0.2271 -0.0093 -0.1851
    1W        W39750  17.114  23.336   9.240  0.0063 -0.0248 -0.2843
    1W        W39751   2.100  21.607   1.291  0.1064  0.0385 -0.0403
    1W        W39752  29.548  18.569   0.138 -0.0811  0.0457 -0.2589
    1W        W39753  12.707   1.522   7.546 -0.3922  0.1201 -0.0402
    1W        W39754   9.268   1.487   3.196  0.0201 -0.0582  0.2187
    1W        W39755   1.514   5.964   6.989 -0.3455 -0.0035 -0.1072
    1W        W39756   5.464   5.798   0.898 -0.2251  0.1090  0.3991
    1W        W39757   8.105  19.597   5.597  0.0361 -0.0166  0.4250
    1W        W39758  24.911   1.192   8.225  0.1216 -0.0170 -0.1789
    1W        W39759  21.753  19.633   9.040  0.1118  0.1288  0.0633
    1W        W39760  13.435  19.982   0.074  0.0072 -0.3547 -0.1414
    1W        W39761  18.079   9.671   8.818  0.3393 -0.0825  0.0410
    1W        W39762  21.473   1.069   8.021  0.0576  0.1141 -0.1487
    1W        W39763  20.029  12.401   7.214 -0.0039  0.0212 -0.1647
    1W        W39764  21.151   2.466   8.159 -0.2677  0.0699  0.5398
    1W        W39765  21.226  16.418   0.940  0.1140  0.1038 -0.0892
    1W        W39766  24.146  10.290   7.182  0.0270 -0.1994 -0.0767
    1W        W39767   8.542   5.257   1.990 -0.0743 -0.2822 -0.3090
    1W        W39768  29.377   3.769   1.534  0.2550 -0.0239  0.2170
    1W        W39769   6.311  26.577   2.641  0.1396 -0.3767 -0.2435
    1W        W39770  11.988  27.685   9.019  0.4069 -0.1737 -0.1519
    1W        W39771  10.112   3.600   3.045 -0.0196 -0.2301  0.1151
    1W        W39772  12.556   2.549   0.896  0.0983  0.0906 -0.0084
    1W        W39773  17.846  26.173   6.741 -0.1529 -0.0493  0.0832
    1W        W39774  17.928  15.569   8.260  0.0821  0.0423  0.0327
    1W        W39775   9.016  14.079   8.324  0.1520  0.1902 -0.0790
    1W        W39776   6.925  24.747   1.598  0.2603 -0.2852  0.1713
    1W        W39777  30.232   5.900   6.093  0.0995  0.1312 -0.4432
    1W        W39778  20.934  29.007   8.629 -0.0123  0.2966 -0.2799
    1W        W39779  14.541  10.422   0.925  0.0580  0.0063  0.2429
    1W        W39780  27.739   5.572   7.619 -0.0862 -0.0536 -0.0503
    1W        W39781  24.248  22.745   0.315  0.0574  0.0009  0.1466
    1W        W39782  15.577   2.764   2.960  0.0522  0.3772  0.1471
    1W        W39783   7.025  23.772   6.969  0.2890  0.1805  0.2910
    1W        W39784   0.476  22.758   8.927  0.3667  0.3699 -0.2431
    1W        W39785  19.373   1.284   9.041 -0.0257 -0.0072  0.1543
    1W        W39786  27.722   2.398   1.168 -0.0937  0.3545 -0.2399
    1W        W39787  14.123  17.782   9.229 -0.2178  0.1500 -0.0394
    1W        W39788  17.972  14.732   1.839 -0.3402 -0.1175  0.2881
    1W        W39789  10.794  28.572   1.637 -0.1347  0.0229 -0.1120
    1W        W39790  20.276   1.234   0.807  0.3138 -0.0634  0.3175
    1W        W39791   8.876  22.306   5.812 -0.2629  0.3340  0.1383
    1W        W39792  13.684  23.025   8.832 -0.2228  0.3354  0.2147
    1W        W39793  17.178   2.814   2.350 -0.1310  0.0723  0.0663
    1W        W39794  29.746   5.635   7.838  0.0335 -0.0174 -0.1396
    1W        W39795   8.601  16.583   7.190 -0.0892  0.1685  0.0972
    1W        W39796   2.265  27.756   8.697  0.3361  0.0238 -0.0426
    1W        W39797  14.058   8.818   8.796  0.0109  0.3087  0.1858
    1W        W39798   5.934  25.499   6.778  0.5628 -0.0136  0.0322
    1W        W39799  17.446  22.030   6.011  0.3726  0.0547  0.0986
    1W        W39800  14.902  17.838   6.757  0.1168  0.0831 -0.1202
    1W        W39801  19.885   1.811   2.659 -0.0659 -0.2506 -0.1000
    1W        W39802  26.309  27.483   7.100  0.0149  0.1725 -0.0441
    1W        W39803   7.838  26.698   7.378  0.1019  0.1247  0.1594
    1W        W39804  21.844   1.996   7.898  0.2449  0.3000  0.0650
    1W        W39805  21.962  27.523   1.973  0.0932 -0.2063 -0.0927
    1W        W39806   4.131  25.211   8.759  0.0170 -0.0601 -0.0700
    1W        W39807   3.687  26.941   7.449  0.3577  0.1690  0.0626
    1W        W39808  30.019   7.297   8.923  0.2136 -0.1307  0.2284
    1W        W39809  14.838   8.577   6.768 -0.2174  0.2702 -0.0576
    1W        W39810  25.612  14.788   6.691  0.2433  0.0400  0.2286
    1W        W39811   6.861   3.504   8.300  0.1256 -0.0652  0.1136
    1W        W39812  16.650  18.215   6.897 -0.0609 -0.0643 -0.1718
    1W        W39813  23.360   0.602   1.329  0.1253  0.0001 -0.2245
    1W        W39814   8.688   9.633   7.064  0.0913 -0.1286  0.0853
    1W        W39815  26.280  17.763   8.156 -0.0338 -0.0578  0.0831
    1W        W39816   8.579  28.086   6.421 -0.1871 -0.2980  0.2098
    1W        W39817  25.221  13.186   0.993  0.1666  0.2578 -0.0922
    1W        W39818  25.047  12.188   8.017  0.0648 -0.0426  0.2403
    1W        W39819  18.533  17.115   1.346 -0.1921 -0.1201 -0.1808
    1W        W39820  28.119   8.253   7.681  0.1577  0.3047  0.2353
    1W        W39821   6.604  12.234   9.190 -0.1962 -0.1003 -0.3606
    1W        W39822  21.008   4.869   3.030 -0.0021 -0.0144  0.1671
    1W        W39823   8.422   4.183   1.746 -0.0303 -0.0659  0.2884
    1W        W39824   1.052   3.832   8.099 -0.0589 -0.1746 -0.0298
    1W        W39825  14.994  18.672   7.333  0.0355  0.2599 -0.0551
    1W        W39826   1.434   8.061   3.045 -0.0427  0.4574  0.2187
    1W        W39827  24.747   9.352   1.555 -0.0380  0.3244 -0.0690
    1W        W39828  14.389  18.725   9.104 -0.2171 -0.0862 -0.1221
    1W        W39829  24.209  23.463   1.637 -0.1560 -0.1529  0.0948
    1W        W39830   6.731  21.713   0.803  0.1809 -0.0121 -0.0322
    1W        W39831  14.898  23.334   8.182  0.0422  0.1391  0.1740
    1W        W39832   9.214  27.892   2.147  0.0738 -0.3822 -0.0825
    1W        W39833  13.223  24.560   1.331  0.0071 -0.0468  0.4281
    1W        W39834  11.169  11.174   1.111 -0.2166 -0.0414  0.2502
    1W        W39835  15.949  18.577   6.543  0.1876 -0.0565  0.1439
    1W        W39836  22.077   3.722   0.165 -0.2240 -0.0147  0.0806
    1W        W39837   9.895  28.262   2.856  0.0406 -0.0126 -0.1860
    1W        W39838  28.212  22.803   8.603  0.2240 -0.1349 -0.0606
    1W        W39839   7.836   7.134   2.600  0.0614  0.2932 -0.0899
    1W        W39840  20.796  29.238   6.641 -0.0857 -0.1224  0.2555
    1W        W39841  11.536  22.064   0.613 -0.0756 -0.1742 -0.1010
    1W        W39842   8.459  17.057   0.426 -0.0704 -0.3134  0.0660
    1W        W39843   3.518  26.648   1.006 -0.3927  0.1229 -0.1330
    1W        W39844   7.695   3.290   2.228  0.0077  0.1631 -0.0629
    1W        W39845  14.729  25.652   7.368 -0.1678  0.1974  0.3272
    1W        W39846   2.197   6.721   0.687  0.3723 -0.0592  0.0810
    1W        W39847  30.152  26.881   6.695 -0.0157  0.4014  0.2388
    1W        W39848  22.172  18.603   2.070  0.0348 -0.0621 -0.0923
    1W        W39849  18.819  15.245   9.023  0.1262 -0.1829 -0.0461
    1W        W39850  11.467  14.562   2.078  0.0056 -0.2857  0.0751
    1W        W39851  22.136   2.729   3.245 -0.0959  0.0048 -0.0553
    1W        W39852   8.329  24.659   1.115 -0.1696 -0.1772 -0.3124
    1W        W39853  25.660  17.674   6.805 -0.0299  0.0154  0.2053
    1W        W39854   1.214   7.672   2.275  0.2105  0.1877 -0.1886
    1W        W39855  17.722  27.433   1.893  0.1273  0.5049 -0.0754
    1W        W39856   9.480  12.019   7.798  0.1162  0.2028 -0.2808
    1W        W39857   5.710   0.079   2.840  0.2011  0.3347 -0.3737
    1W        W39858   0.438  10.892   2.083 -0.2510  0.0194  0.0385
    1W        W39859  12.289  26.813   1.544  0.0906 -0.1109 -0.2062
    1W        W39860  14.465   0.616   9.228  0.3133 -0.3136  0.2217
    1W        W39861   0.058  13.375   6.564  0.2585  0.2336  0.1919
    1W        W39862  23.219  21.837   0.519  0.0202  0.0051  0.1259
    1W        W39863  17.924   2.853   6.705  0.0706  0.4161 -0.2536
    1W        W39864  10.729  15.573   2.226  0.1564  0.0967  0.0084
    1W        W39865  10.555   5.368   0.239 -0.0525 -0.1540 -0.2226
    1W        W39866  22.752  21.571   1.541 -0.1776 -0.1748 -0.0359
    1W        W39867  17.361   3.812   8.422 -0.0580 -0.2774  0.0767
    1W        W39868  14.780  12.136   9.084 -0.2133  0.2989  0.0286
    1W        W39869  23.018   0.662   6.886 -0.0640  0.2720  0.0712
    1W        W39870  12.523  21.013   7.843 -0.1487  0.0366  0.1030
    1W        W39871  28.906  19.949   8.407 -0.1040 -0.0831 -0.0354
    1W        W39872  17.726  22.141   0.648  0.0354  0.2060  0.2156
    1W        W39873  20.940   8.628   5.799 -0.0024  0.2566  0.3242
    1W        W39874  12.863  19.673   0.208 -0.1061 -0.1664  0.1777
    1W        W39875  20.577  29.197   3.329 -0.0199 -0.0730  0.2071
    1W        W39876   4.738  22.771   8.668  0.0701  0.3586  0.0040
    1W        W39877  20.570  10.507   1.202 -0.0202 -0.1332 -0.1946
    1W        W39878  20.902  15.920   0.950 -0.2640  0.0350 -0.0115
    1W        W39879   3.044  18.588   6.827 -0.0348  0.2774  0.1347
    1W        W39880  19.546   1.647   1.993 -0.1912 -0.0019 -0.1051
    1W        W39881   8.054   0.410   2.485  0.1809  0.0929  0.0968
    1W        W39882  14.463  26.594   0.960 -0.0653  0.0344  0.2480
    1W        W39883   4.284   1.712   3.581 -0.0764 -0.4102 -0.0270
    1W        W39884  17.982  15.051   8.022 -0.5243  0.2140  0.0776
    1W        W39885  17.763  27.491   7.694 -0.0231  0.3958  0.3273
    1W        W39886   0.712  20.741   8.316 -0.2768  0.2094 -0.1619
    1W        W39887  24.960  27.618   1.861 -0.0052  0.3811 -0.1078
    1W        W39888   6.564   8.126   6.665  0.3924  0.4040  0.1335
    1W        W39889   4.042  28.610   7.816 -0.1482  0.0199 -0.0628
    1W        W39890   9.484  10.746   0.726 -0.0190 -0.1767 -0.2501
    1W        W39891  29.269  11.030   0.242  0.1095  0.2726  0.0143
    1W        W39892  10.444  11.002   0.787  0.2587 -0.1009  0.0728
    1W        W39893  27.466  23.471   8.326  0.2473  0.0716 -0.1565
    1W        W39894  17.101  18.071   5.408 -0.0991  0.2010 -0.0110
    1W        W39895  29.762   7.185   7.369 -0.0051 -0.3107  0.0652
    1W        W39896  13.072  26.757   2.173  0.0687 -0.1345 -0.2678
    1W        W39897   2.619  16.691   0.717 -0.1457 -0.0945  0.3744
    1W        W39898  28.789  25.287   0.079 -0.1249 -0.0881 -0.1077
    1W        W39899   8.191  29.777   8.948  0.4145 -0.2189 -0.2726
    1W        W39900  11.389   2.999   7.656 -0.0710 -0.1955  0.0789
    1W        W39901  12.796   1.470   8.101  0.2948  0.2358  0.0913
    1W        W39902  13.623  15.859   1.135  0.0984 -0.0827 -0.0347
    1W        W39903  14.364  20.479   2.540 -0.0713 -0.0123  0.1206
    1W        W39904  19.784  23.021   1.815  0.1948 -0.0800  0.0120
    1W        W39905   1.217  18.404   0.691  0.2431  0.3289 -0.0780
    1W        W39906  11.939   1.403   1.162 -0.0884  0.0898  0.0324
    1W        W39907  19.959  16.195   1.366 -0.1442  0.2413 -0.0535
    1W        W39908  15.367  17.365   6.143  0.1574 -0.0053  0.0640
    1W        W39909  18.109  21.841   0.721 -0.1822 -0.1802 -0.0077
    1W        W39910   0.914  22.637   6.324 -0.3452 -0.1312  0.3864
    1W        W39911  12.799   3.873   1.840  0.1949  0.3029  0.0406
    1W        W39912  29.771  29.137   6.922  0.0858  0.1567 -0.0181
    1W        W39913  20.553  21.835   6.575  0.2237 -0.0289  0.0494
    1W        W39914   3.231  14.177   8.928 -0.1546  0.4760 -0.0253
    1W        W39915  17.697  22.381   8.019 -0.2275 -0.2005 -0.0595
    1W        W39916  19.780  16.172   8.802  0.0394 -0.2123 -0.1805
    1W        W39917  10.417   5.469   0.826 -0.2041 -0.0955  0.5069
    1W        W39918  16.038  27.220   6.835 -0.1087  0.2005  0.1089
    1W        W39919  15.539  25.876   8.590  0.3298  0.3188 -0.2748
    1W        W39920   8.405  18.665   1.436 -0.2831 -0.0209  0.0369
    1W        W39921  17.608   5.311   5.336  0.1479  0.0025  0.0790
    1W        W39922   5.443  10.435   2.717  0.1307  0.1903 -0.0873
    1W        W39923  23.260  17.070   7.196 -0.0438  0.0338 -0.0740
    1W        W39924   2.082   9.027   7.301  0.0297  0.1609  0.0007
    1W        W39925   2.934  22.301   2.301  0.0974 -0.1340  0.0060
    1W        W39926   3.428  21.710   8.092 -0.0369  0.0437  0.4175
    1W        W39927  18.493  27.629   2.391  0.0450 -0.0217  0.0054
    1W        W39928  10.097  12.426   0.709  0.1529 -0.0632  0.0827
    1W        W39929   1.637   1.221   8.118 -0.2665  0.3626 -0.0317
    1W        W39930   6.170  13.372   6.620  0.2392  0.1511 -0.0241
    1W        W39931  22.444   3.359   1.474  0.4620  0.0976 -0.1951
    1W        W39932  22.399   5.477   0.149 -0.0882  0.1327 -0.5321
    1W        W39933   4.481   7.776   1.886  0.2016 -0.3829 -0.1219
    1W        W39934   0.918  22.652   0.011  0.0892 -0.0319 -0.0583
    1W        W39935  10.873  10.804   0.991  0.1538 -0.0856 -0.1053
    1W        W39936  27.082  25.627   1.485  0.3178  0.2223 -0.3262
    1W        W39937   4.654  18.066   7.058  0.1122 -0.3757 -0.0391
    1W        W39938  10.357  27.567   1.082 -0.0627 -0.0671 -0.2974
    1W        W39939   6.326   8.875   8.212  0.1010 -0.0695  0.0193
    1W        W39940  18.550   1.741   1.742  0.0729 -0.0564 -0.1060
    1W        W39941  26.272   6.672   1.378  0.1724  0.1588 -0.3184
    1W        W39942  13.605   3.131   1.337 -0.1829  0.1165  0.2068
    1W        W39943  20.154  17.015   1.726 -0.1308  0.2604  0.1235
    1W        W39944  29.002  24.864   0.339 -0.1145 -0.0141  0.1533
    1W        W39945  10.394  20.382   1.840  0.2774  0.1004 -0.1701
    1W        W39946  14.513  25.739   0.892  0.1779  0.3604  0.0539
    1W        W39947   2.454   6.298   6.279 -0.1232  0.2286 -0.1013
    1W        W39948   5.561  21.978   7.972 -0.1650 -0.2321 -0.0161
    1W        W39949   7.192  30.137   0.091 -0.1469  0.0937 -0.0163
    1W        W39950   5.552   5.226   0.945  0.1218  0.0016  0.1305
    1W        W39951  10.733  18.862   6.733  0.1782  0.0153  0.3281
    1W        W39952  15.795  15.157   2.081 -0.0252 -0.0713  0.1399
    1W        W39953   7.700  26.169   1.761  0.0907 -0.0152  0.2106
    1W        W39954  18.575  22.513   0.340  0.2048 -0.2565 -0.1020
    1W        W39955  16.454   9.689   6.841  0.1105  0.1726  0.1339
    1W        W39956  11.898  21.337   0.547 -0.2623  0.3815 -0.3002
    1W        W39957  26.208  14.495   8.118  0.3101  0.0031 -0.2765
    1W        W39958  28.469  14.398   6.817 -0.1164 -0.1043  0.1471
    1W        W39959   4.587  24.432   6.521 -0.1307  0.0145 -0.0404
    1W        W39960   6.138  24.531   1.970 -0.0160 -0.0880 -0.1077
    1W        W39961  17.897   0.497   1.583  0.0795 -0.0871  0.0682
    1W        W39962  15.932  11.034   7.289 -0.2921 -0.2445  0.2359
    1W        W39963  15.465  28.955   0.472 -0.2292  0.0615  0.2504
    1W        W39964  15.095  29.933   1.357  0.1685  0.2326 -0.0634
    1W        W39965  15.096   4.221   8.201  0.3828  0.1752 -0.2829
    1W        W39966   9.808   2.779   7.072  0.0845  0.1740 -0.1468
    1W        W39967  10.289  21.721   6.785 -0.1275  0.0131 -0.1974
    1W        W39968  23.247  23.220   5.888  0.2220 -0.0598  0.0905
    1W        W39969  18.740   5.255   0.531 -0.0556  0.0556  0.1273
    1W        W39970   7.755  20.975   0.949  0.0855  0.0402 -0.1739
    1W        W39971  21.600   9.133   5.813 -0.2229 -0.0768 -0.2653
    1W        W39972   3.705  17.672   6.289 -0.0778 -0.0736 -0.1027
    1W        W39973   9.052  23.002   8.212 -0.1894  0.2866 -0.1167
    1W        W39974   8.001   4.286   7.466  0.0790 -0.2924  0.5058
    1W        W39975  23.104  14.796   1.404  0.1405 -0.1153  0.0274
    1W        W39976  25.198  14.153   2.533  0.0376 -0.3513  0.0738
    1W        W39977  16.728  21.308   0.470  0.1031  0.0915 -0.0720
    1W        W39978   4.100  28.183   0.687 -0.1939  0.0451  0.1602
    1W        W39979  27.121  26.629   7.874  0.0258  0.1999 -0.1311
    1W        W39980  12.008  13.523   8.069  0.0053  0.2208  0.0988
    1W        W39981  26.619   8.041   8.993 -0.1440  0.0438  0.0016
    1W        W39982  22.205  21.993   0.659 -0.1060  0.1918  0.3524
    1W        W39983  10.014   6.378   0.773 -0.1825 -0.2720 -0.1592
    1W        W39984  16.107  17.565   1.448  0.1396 -0.1115  0.2770
    1W        W39985   1.095  27.288   2.553 -0.0249 -0.1461  0.1523
    1W        W39986  19.804  20.150   7.054  0.3629 -0.1713 -0.0845
    1W        W39987  26.410  16.681   6.737  0.0637 -0.0757  0.0256
    1W        W39988  18.716  19.383   7.739  0.0339 -0.2222 -0.1115
    1W        W39989  11.509  28.198   7.516  0.0214 -0.0672 -0.1302
    1W        W39990  13.331  22.804   1.948  0.0025  0.1184 -0.1216
    1W        W39991  16.237  18.506   1.474  0.2256 -0.1235 -0.2530
    1W        W39992  16.719   9.157   9.131  0.0036 -0.0576  0.1398
    1W        W39993  25.490   7.124   7.569 -0.1382  0.3954 -0.0941
    1W        W39994  15.524  16.931   9.163 -0.1251  0.0493  0.0435
    1W        W39995  19.515   4.127   0.160 -0.0083 -0.0058 -0.4175
    1W        W39996  17.175   9.552   7.615  0.2186 -0.1766  0.0353
    1W        W39997  30.233  24.559   0.860 -0.2750 -0.3305  0.2594
    1W        W39998  30.247   6.532   7.157 -0.3409  0.3528 -0.3351
    1W        W39999  18.179  25.115   6.880  0.0156  0.4144  0.2424
    1W        W40000  26.329  14.623   8.971 -0.0704 -0.2506  0.0796
    1W        W40001  26.478  11.179   7.193  0.0108  0.0619 -0.2063
    1W        W40002  18.701  28.611   7.857 -0.1347 -0.2439  0.1050
    1W        W40003  27.177  25.516   6.852  0.1065  0.0855  0.0051
    1W        W40004  19.824  19.102   9.177  0.0450 -0.0594  0.1489
    1W        W40005  20.422  11.196   7.170  0.0275 -0.2960 -0.1038
    1W        W40006  10.696   1.371   2.446  0.2128 -0.2672 -0.1111
    1W        W40007  14.275  27.953   6.875  0.4554  0.2861  0.0404
    1W        W40008   8.163  26.390   7.682  0.1984  0.0220  0.2393
    1W        W40009  25.200  17.120   2.008  0.0724 -0.1146 -0.1457
    1W        W40010  12.130  10.675   0.240 -0.1415  0.0992  0.0106
    1W        W40011  16.857   9.934   6.819  0.0784 -0.0676  0.0029
    1W        W40012  17.417  21.066   8.111  0.1790  0.1681  0.0381
    1W        W40013  20.574  21.953   7.482 -0.1528 -0.0047  0.2160
    1W        W40014  16.070  23.439   6.078  0.0190  0.0840  0.1658
    1W        W40015  30.205  28.832   1.758 -0.0408 -0.0984  0.0368
    1W        W40016  11.941  19.162   7.800  0.0128  0.2009  0.0913
    1W        W40017   5.919  27.323   9.057 -0.0634 -0.1065 -0.1871
    1W        W40018   9.242   9.242   1.047 -0.4091 -0.1776  0.1168
    1W        W40019  26.745  27.679   9.227 -0.1902  0.0381 -0.3779
    1W        W40020  21.631  17.251   1.954 -0.0128 -0.3335  0.1382
    1W        W40021  15.306  15.527   0.234  0.1094 -0.0355  0.3783
    1W        W40022   7.525  30.183   7.335 -0.0554 -0.0284 -0.0180
    1W        W40023  10.666  24.127   1.885  0.1877 -0.0405 -0.1848
    1W        W40024  20.183   6.434   8.701 -0.1722  0.1396 -0.0129
    1W        W40025   0.976  26.194   8.716  0.1014  0.1280 -0.1379
    1W        W40026  21.320   4.168   1.098  0.3382  0.2420 -0.0996
    1W        W40027  16.681   8.052   1.793  0.0664 -0.2304  0.1031
    1W        W40028  20.779  24.239   9.209  0.2763  0.1557  0.0407
    1W        W40029  14.899  23.074   9.106  0.0083 -0.1807 -0.0116
    1W        W40030  18.358  21.156   8.362 -0.1890  0.0356 -0.0544
    1W        W40031  18.574  18.266   6.685  0.1841  0.3192 -0.0080
    1W        W40032   7.964   4.446   3.136  0.0162 -0.0799  0.3567
    1W        W40033  27.417  13.513   7.959  0.0163  0.0221  0.3100
    1W        W40034  16.183   6.751   6.912  0.0200 -0.0071 -0.0190
    1W        W40035   2.585  18.587   1.530  0.2143  0.1132 -0.0281
    1W        W40036  14.619   3.034   8.394 -0.0818 -0.0947 -0.0075
    1W        W40037  21.448  10.608   1.051  0.0266  0.0917  0.0054
    1W        W40038  10.201   2.546   2.100 -0.1777 -0.0587 -0.0393
    1W        W40039  28.490  27.644   3.117 -0.1196 -0.0201  0.1654
    1W        W40040  22.272  19.225   8.178 -0.2088  0.1768 -0.5713
    1W        W40041  25.425   9.878   8.105  0.2554  0.0050  0.1295
    1W        W40042   1.428  24.629   1.124  0.3981  0.1130 -0.1204
    1W        W40043   8.693   6.048   8.357  0.1776 -0.0939  0.1861
    1W        W40044   5.342   4.764   3.477 -0.3021  0.2465 -0.1163
    1W        W40045  11.340   9.306   0.109  0.0694  0.0036 -0.1496
    1W        W40046   1.792  12.900   7.086  0.2352 -0.0758  0.0217
    1W        W40047  20.978   4.977   0.420  0.0693 -0.2461  0.0494
    1W        W40048  27.931   0.717   2.157  0.0658  0.4290  0.2664
    1W        W40049  17.155  21.726   0.637 -0.1243 -0.0645  0.0332
    1W        W40050   2.890  22.937   7.405 -0.0005  0.1081  0.1342
    1W        W40051  12.375  14.134   0.641  0.3101  0.2598 -0.0370
    1W        W40052  26.172  12.988   7.681  0.3265 -0.0682  0.0783
    1W        W40053  13.911   9.440   7.430 -0.0284 -0.2460  0.2606
    1W        W40054   9.845  27.002   2.064  0.2528  0.2306 -0.0781
    1W        W40055   8.288  14.772   1.610 -0.2031  0.0937  0.2080
    1W        W40056  12.402  21.371   8.589 -0.1257  0.0318 -0.2692
    1W        W40057  21.707  27.334   7.922  0.1618 -0.2053 -0.2954
    1W        W40058  23.318   5.176   0.932  0.1050  0.0882  0.2237
    1W        W40059  21.189  27.090   6.901 -0.0268 -0.0732  0.0972
    1W        W40060  26.895  29.758   1.490  0.0855  0.1186 -0.0448
    1W        W40061   0.862  29.450   8.042 -0.0005 -0.4230 -0.0777
    1W        W40062   8.210  18.700   1.899  0.2570 -0.1514 -0.1405
    1W        W40063  19.453  22.015   8.583  0.2447 -0.0771 -0.1453
    1W        W40064  24.425  23.900   8.284  0.1714 -0.1095  0.1359
    1W        W40065  27.810  17.946   1.297  0.0029  0.0374 -0.1376
    1W        W40066  11.836   8.382   2.366  0.0790 -0.2787  0.0398
    1W        W40067  20.719  23.667   6.713  0.0824  0.3592 -0.2638
    1W        W40068  18.904  14.133   8.397 -0.0025 -0.3399  0.0365
    1W        W40069   2.722   9.681   7.619 -0.2107 -0.2566 -0.1048
    1W        W40070  11.220   9.170   0.597 -0.1527 -0.0734 -0.0327
    1W        W40071   9.863   3.939   6.850 -0.1317  0.0084 -0.2294
    1W        W40072  21.332   4.662   1.654 -0.3775 -0.2199 -0.2771
    1W        W40073  19.714  14.999   1.887 -0.0767 -0.1195  0.0169
    1W        W40074   4.944   9.847   0.534  0.2525 -0.1365 -0.2515
    1W        W40075   7.261   4.056   2.610  0.1731 -0.3644 -0.0896
    1W        W40076   9.737  26.318   1.249 -0.1705 -0.0434 -0.0114
    1W        W40077  16.331   1.464   0.413  0.1569 -0.0845  0.1972
    1W        W40078  17.941   2.594   7.159 -0.4417 -0.3668  0.2521
    1W        W40079  18.406  26.558   0.233  0.0362 -0.2600 -0.2418
    1W        W40080  23.674  14.916   2.104 -0.1421 -0.0970 -0.1793
    1W        W40081   6.079  16.491   1.568 -0.2438 -0.2199 -0.0937
    1W        W40082  13.387  22.855   9.183 -0.1420 -0.0262 -0.0525
    1W        W40083  20.189   2.244   8.749 -0.0779 -0.0712  0.4768
    1W        W40084   6.362   5.026   9.158 -0.1137  0.3322  0.1417
    1W        W40085  25.989  28.524   1.083 -0.0741 -0.0044  0.0539
    1W        W40086  13.589  13.241   1.010 -0.2094 -0.0677 -0.0949
    1W        W40087  19.535  24.677   6.843 -0.0455 -0.0558  0.2050
    1W        W40088  24.231  16.040   7.604  0.1486 -0.1197 -0.1036
    1W        W40089  10.563   4.643   5.759  0.1611 -0.3578  0.2348
    1W        W40090   7.157  20.612   6.286 -0.0277  0.0902 -0.0016
    1W        W40091  17.670  24.756   8.431 -0.1494 -0.1188  0.1943
    1W        W40092  22.765  22.601   6.567  0.2301 -0.1205 -0.3544
    1W        W40093  15.687   0.371   6.650 -0.2162 -0.0171  0.0809
    1W        W40094   1.443   1.352   0.201 -0.1992  0.1012 -0.0320
    1W        W40095  19.083  25.426   1.782 -0.0031  0.0717  0.2547
    1W        W40096  10.077  23.702   8.975  0.2487  0.0364  0.0041
    1W        W40097  10.702   7.394   7.933  0.3469  0.0377 -0.1122
    1W        W40098  17.049   1.024   1.210 -0.0360 -0.1008  0.1426
    1W        W40099  22.879   0.131   8.859 -0.0704  0.1009  0.0472
    1W        W40100   5.389   4.212   2.587 -0.3262  0.0920 -0.0627
    1W        W40101  27.112  24.235   8.648  0.1133  0.0750 -0.0470
    1W        W40102  14.114   8.937   0.034  0.1682 -0.2356 -0.0808
    1W        W40103  16.335  24.735   1.140  0.1665 -0.1141  0.1351
    1W        W40104  14.400  26.209   2.527 -0.2725 -0.0045 -0.1427
    1W        W40105   7.757   3.847   0.757 -0.1330 -0.3438 -0.0663
    1W        W40106   5.169  27.777   7.764  0.0824 -0.0501 -0.0749
    1W        W40107   6.737   2.717   3.248 -0.3439  0.0289  0.0348
    1W        W40108   7.883  25.717   1.855  0.1377  0.2530  0.5496
    1W        W40109   3.363  18.789   0.951  0.0690 -0.0265 -0.0680
    1W        W40110  18.843  17.466   7.652  0.0531  0.2842  0.0560
    1W        W40111   9.767  29.522   7.666 -0.1268  0.2530 -0.2379
    1W        W40112  29.462  11.765   6.500 -0.1532  0.1446  0.1536
    1W        W40113  18.965  23.156   8.435  0.2728 -0.0280  0.2912
    1W        W40114  20.791  14.257   1.849 -0.1255  0.2083  0.0083
    1W        W40115   7.203  16.446   7.323 -0.0529  0.0222 -0.0574
    1W        W40116  22.960   0.369   0.965 -0.2940 -0.1553 -0.0425
    1W        W40117  17.253  28.126   2.629 -0.2163  0.0642 -0.0750
    1W        W40118  17.773  11.793   7.555  0.1466  0.0125 -0.0210
    1W        W40119   1.053  10.474   0.104 -0.0121 -0.0594  0.3137
    1W        W40120  10.408  28.170   0.078  0.0825  0.0069  0.0183
    1W        W40121  12.997  16.559   1.865  0.0605  0.3234 -0.1241
    1W        W40122   7.509  23.683   7.154  0.2626  0.0006  0.1711
    1W        W40123  17.025  16.577   2.053  0.0387 -0.2867  0.3280
    1W        W40124  11.869   3.303   7.725  0.4178 -0.2784  0.0109
    1W        W40125   8.033  29.729   0.533 -0.1335  0.3124 -0.2414
    1W        W40126   6.607  12.485   1.577  0.0256  0.0627 -0.0477
    1W        W40127   3.608   4.985   1.990  0.2022 -0.0718  0.0018
    1W        W40128  17.227  18.954   6.523  0.2604  0.0853 -0.2563
    1W        W40129   9.697  15.947   7.275  0.0195 -0.0405  0.3556
    1W        W40130  21.281  28.659   7.668 -0.1217 -0.1932 -0.2917
    1W        W40131  26.703   7.047   2.036 -0.2253  0.1084 -0.2753
    1W        W40132   3.525  23.696   0.699 -0.0778 -0.2153 -0.0609
    1W        W40133  17.918   7.842   6.213 -0.0270  0.1256 -0.0471
    1W        W40134   1.828  22.752   1.117 -0.0172 -0.1774 -0.1152
    1W        W40135  29.571  15.001   0.617 -0.4657  0.0298  0.0355
    1W        W40136  28.998  26.177   0.155 -0.0642 -0.1483 -0.0898
    1W        W40137  18.260  14.327   0.749  0.2132  0.2393  0.3286
    1W        W40138  19.865   4.970   0.774  0.2781  0.4125 -0.0288
    1W        W40139  27.214   2.757   2.222  0.0744  0.0684  0.0436
    1W        W40140  13.181  19.730   7.999  0.0137  0.0912 -0.1442
    1W        W40141   1.167  24.766   0.420  0.0206 -0.2804  0.2083
    1W        W40142  10.708   3.396   2.151 -0.2199 -0.0377 -0.0877
    1W        W40143  24.484   1.095   1.736  0.3373  0.0909  0.0383
    1W        W40144   9.597   9.547   7.471 -0.0762  0.0176  0.2172
    1W        W40145  25.151  22.183   7.620 -0.1288  0.2954  0.2192
    1W        W40146  25.364   4.577   7.803  0.0591  0.2848 -0.1636
    1W        W40147   6.118  21.325   0.430  0.4084  0.3091 -0.0689
    1W        W40148  17.339  15.359   0.457  0.1344  0.0791  0.3654
    1W        W40149  22.907  20.858   6.489 -0.0587 -0.2415  0.0473
    1W        W40150   0.316  12.739   8.271  0.1539 -0.0948 -0.0736
    1W        W40151  11.264   6.503   1.420  0.0645  0.2137 -0.2479
    1W        W40152  25.069  28.500   0.752 -0.2381 -0.0249 -0.0704
    1W        W40153  27.360   9.931   1.091  0.1995 -0.5768 -0.0065
    1W        W40154   6.941  23.993   0.145  0.1190  0.1552  0.0127
    1W        W40155   1.847   1.316   3.336 -0.1754 -0.3282  0.0750
    1W        W40156  17.745  25.545   8.797  0.0661  0.1496 -0.1068
    1W        W40157   9.354   5.911   3.267  0.0125 -0.1802  0.1197
    1W        W40158  26.304  12.810   0.983 -0.0998  0.0655  0.0876
    1W        W40159  15.698  10.758   8.161 -0.0637 -0.1712 -0.2804
    1W        W40160   1.794  28.290   7.666 -0.0933 -0.1708 -0.0484
    1W        W40161   9.576  16.919   1.357  0.0517 -0.1192  0.0602
    1W        W40162   4.108  26.335   7.319  0.1349  0.3499 -0.0775
    1W        W40163  20.740   9.252   1.769  0.2335 -0.1160 -0.2671
    1W        W40164  28.534  13.863   0.523  0.1170 -0.0236 -0.0065
    1W        W40165   7.126  29.368   7.901 -0.2739 -0.1038  0.1765
    1W        W40166  10.654   4.343   1.074 -0.3065 -0.0232  0.2507
    1W        W40167   6.868   6.616   0.797 -0.1962  0.1724 -0.0236
    1W        W40168  18.973  16.510   2.817 -0.0791 -0.1906 -0.0572
    1W        W40169  16.235   2.839   1.851 -0.2750  0.0807 -0.1495
    1W        W40170   2.905  21.686   7.853  0.1009 -0.1131 -0.0212
    1W        W40171   4.443  23.854   0.151 -0.1903 -0.1776 -0.0686
    1W        W40172   8.325   7.367   8.656  0.0683  0.2012 -0.3522
    1W        W40173  10.681   0.925   6.666 -0.3025 -0.2033  0.2696
    1W        W40174  26.775  29.152   4.071  0.0928 -0.0579  0.0712
    1W        W40175   0.673   1.093   3.599 -0.2810 -0.2730 -0.0327
    1W        W40176  13.233  12.189   2.503 -0.0023 -0.2220 -0.2183
    1W        W40177  23.362   6.569   9.193  0.0023  0.0342 -0.0084
    1W        W40178  20.163  24.604   7.335 -0.0110  0.1704  0.0609
    1W        W40179  15.169  18.195   8.550  0.1927  0.1837 -0.1249
    1W        W40180  22.139  10.063   8.938 -0.4622  0.1115  0.1320
    1W        W40181  14.715   3.437   6.658  0.1208  0.1916 -0.1017
    1W        W40182  17.882  16.449   0.842  0.0638 -0.1345 -0.1895
    1W        W40183   5.230   4.986   7.611  0.1605  0.1391  0.3728
    1W        W40184   4.480   6.155   7.283  0.2271  0.0450  0.0656
    1W        W40185   6.725   1.203   9.020 -0.1667  0.1960  0.1754
    1W        W40186  21.925  11.415   0.774 -0.0604 -0.1401 -0.1118
    1W        W40187  13.555   9.744   1.707  0.0379 -0.0997 -0.0611
    1W        W40188   7.624  18.007   8.170  0.1356 -0.1700 -0.1585
    1W        W40189  27.242  22.965   8.558  0.0758 -0.0490  0.0147
    1W        W40190  17.353  28.239   9.135  0.0790  0.0419  0.0371
    1W        W40191  27.432  20.939   2.683  0.3813 -0.1333 -0.1675
    1W        W40192  10.057   9.552   7.710 -0.1323  0.0624  0.0561
    1W        W40193   5.422  28.636   0.943 -0.0564  0.1778 -0.0038
    1W        W40194  11.631   0.702   6.738  0.0601  0.0283  0.1827
    1W        W40195  18.050   0.123   2.083  0.3999  0.0501 -0.4180
    1W        W40196  14.296  14.086   0.250 -0.4866  0.3226  0.1747
    1W        W40197   0.899   6.589   7.476 -0.2101 -0.1734 -0.0762
    1W        W40198   9.777  26.298   7.480 -0.0204 -0.0663  0.2470
    1W        W40199  10.289  18.757   7.112 -0.2206 -0.1479 -0.3895
    1W        W40200   4.500  18.114   8.539 -0.1537 -0.2559 -0.4493
    1W        W40201  24.088  27.924   0.029  0.0666 -0.0952  0.1178
    1W        W40202  19.825  27.528   8.918 -0.1340 -0.2860 -0.2854
    1W        W40203  18.178   8.812   6.984 -0.0054  0.0699 -0.1318
    1W        W40204  29.083  16.226   7.741  0.2201  0.0320  0.1850
    1W        W40205   1.597  17.534   0.604 -0.1260 -0.0495 -0.2397
    1W        W40206  20.715  26.016   2.221 -0.3594  0.0822 -0.0177
    1W        W40207  17.424  17.638   6.625  0.0222 -0.0737  0.2609
    1W        W40208  29.272  18.355   7.893 -0.2706 -0.3396 -0.1575
    1W        W40209  20.678   3.061   1.155 -0.1906  0.1176 -0.0788
    1W        W40210  19.282   3.962   2.370  0.3983  0.0846  0.0061
    1W        W40211  14.487  20.411   8.958 -0.0780 -0.0574 -0.3151
    1W        W40212   1.338   2.646   0.720  0.0908  0.1292 -0.1043
    1W        W40213  26.893   6.357   0.006 -0.0168  0.1346  0.0123
    1W        W40214   2.515  16.321   6.632 -0.2255  0.0226 -0.3707
    1W        W40215   1.837  12.421   0.878 -0.1193 -0.0909  0.0440
    1W        W40216  18.857  24.450   7.566 -0.2589 -0.0780 -0.2463
    1W        W40217   7.156  17.937   8.585  0.2485 -0.0178 -0.0681
    1W        W40218  16.145  11.507   1.522 -0.3647 -0.0657  0.1325
    1W        W40219  29.523  21.435   8.911  0.1722  0.0872 -0.0309
    1W        W40220   5.659  14.027   0.852 -0.0831  0.0973 -0.0705
    1W        W40221  23.276  21.271   6.212 -0.1417  0.0510  0.0230
    1W        W40222   7.028   8.803   6.213 -0.0873 -0.1568  0.2380
    1W        W40223  20.591  29.090   7.109 -0.0680 -0.0036  0.2490
    1W        W40224  13.203   2.127   6.987  0.0779 -0.0574 -0.5078
    1W        W40225   0.072   1.437   7.748 -0.3704  0.0615  0.1374
    1W        W40226  23.402  13.156   0.436  0.1079 -0.1644 -0.0224
    1W        W40227  17.681  17.088   1.476  0.2423 -0.0968 -0.1175
    1W        W40228  11.099  25.251   7.428  0.2201 -0.2290  0.3709
    1W        W40229  24.502  14.278   7.724  0.0768  0.1215 -0.1066
    1W        W40230  23.218  15.020   1.882  0.0572 -0.2599  0.1274
    1W        W40231  26.761  28.347   2.211 -0.0039 -0.0119 -0.2793
    1W        W40232   8.724  16.901   1.130 -0.0048  0.2506  0.1494
    1W        W40233   5.800   7.376   7.140  0.2716  0.0993 -0.1189
    1W        W40234  17.950  19.133   1.787 -0.0017 -0.1384  0.1867
    1W        W40235  18.078   5.726   0.962  0.0499 -0.0965 -0.3427
    1W        W40236   3.669   1.006   0.865 -0.0841 -0.1564  0.0077
    1W        W40237  15.217   6.461   6.653  0.0587 -0.1406  0.0539
    1W        W40238   8.487  23.191   0.323 -0.0988  0.0226  0.1114
    1W        W40239  19.564  11.020   0.719 -0.0888  0.1335 -0.2658
    1W        W40240   9.310  21.397   6.909 -0.3331 -0.2532 -0.1373
    1W        W40241  15.938   7.099   2.175  0.0474  0.0332  0.0312
    1W        W40242   7.864   1.223   2.490  0.2776  0.4207 -0.3375
    1W        W40243  11.169  13.861   7.099 -0.0467  0.0162 -0.1046
    1W        W40244  10.861   3.063   2.967  0.2412  0.0428 -0.1587
    1W        W40245   9.401   2.930   3.339  0.4577 -0.1498  0.1746
    1W        W40246   5.182  26.285   7.653  0.0173  0.1732  0.0582
    1W        W40247  26.616  24.849   6.677  0.0622 -0.2627 -0.0360
    1W        W40248  12.117  27.302   1.029 -0.0301  0.1028  0.0315
    1W        W40249  14.117  23.753   8.882 -0.1495  0.0538 -0.0396
    1W        W40250  11.358   4.017   7.961  0.0232  0.4356  0.0244
    1W        W40251  23.098   6.386   2.230  0.0856  0.0300  0.1084
    1W        W40252  17.060  12.010   6.779  0.1485 -0.0550  0.0641
    1W        W40253   0.853   4.180   1.757  0.0618  0.1346 -0.1385
    1W        W40254  18.206  15.997   1.824 -0.2808 -0.1626  0.0533
    1W        W40255  21.436  17.772   1.014 -0.1939 -0.1586 -0.1423
    1W        W40256   6.514  11.779   7.546 -0.2901 -0.3083  0.1577
    1W        W40257  25.554  21.674   6.922 -0.3550 -0.1628  0.1614
    1W        W40258  23.088   5.760   3.689 -0.0093  0.0125  0.3340
    1W        W40259  22.924  21.085   6.930  0.4477 -0.0865 -0.2421
    1W        W40260   1.477  28.206   2.568  0.1888  0.1515 -0.1220
    1W        W40261   1.215   0.932   0.608  0.2231  0.2599 -0.1075
    1W        W40262   9.239  18.760   8.381 -0.0611 -0.0476 -0.0883
    1W        W40263  14.817  13.361   8.753  0.0503 -0.1143  0.2907
    1W        W40264   1.817  14.742   7.267 -0.2961 -0.0542  0.1224
    1W        W40265  18.770   1.394   6.848  0.2118 -0.0445 -0.0208
    1W        W40266  23.675  13.797   7.694  0.2702 -0.0479 -0.0936
    1W        W40267   0.263   6.248   5.884  0.3822  0.3164 -0.0212
    1W        W40268   3.657  20.872   9.069 -0.1900  0.1071  0.1609
    1W        W40269  27.499   1.916   8.431  0.3394 -0.1449 -0.3999
    1W        W40270   6.214   8.823   9.120  0.0175  0.2245  0.0257
    1W        W40271   3.604   8.087   1.689  0.2302 -0.2376  0.1758
    1W        W40272  13.180   1.967   8.989  0.1140 -0.2996 -0.1319
    1W        W40273  22.526  27.437   8.526 -0.0080  0.3744 -0.0705
    1W        W40274  27.164  21.162   0.831 -0.2186  0.0723 -0.0344
    1W        W40275  15.299  25.810   7.504 -0.0566  0.1456  0.3474
    1W        W40276   3.783  17.370   0.738  0.0412 -0.2391  0.0562
    1W        W40277   9.458  28.570   0.417  0.3600 -0.1832  0.0786
    1W        W40278  13.315  28.283   0.952 -0.1638  0.2494  0.1603
    1W        W40279  29.980  24.857   1.746 -0.1229 -0.1910  0.2200
    1W        W40280   6.384  11.113   9.161 -0.0405  0.2470 -0.0307
    1W        W40281  23.421  17.769   1.646 -0.2028 -0.0330  0.1704
    1W        W40282  15.388   2.759   7.083  0.3968  0.0670 -0.0207
    1W        W40283  16.942  17.987   9.141  0.2660  0.1179  0.0993
    1W        W40284  28.306  24.827   8.729 -0.0974 -0.0406 -0.1083
    1W        W40285  15.536   2.054   8.661 -0.0901 -0.2697 -0.0039
    1W        W40286  21.893   9.617   9.030 -0.4063  0.2625  0.1622
    1W        W40287  13.827  26.213   7.803  0.4342 -0.0863 -0.1387
    1W        W40288  26.590  20.549   6.863  0.1590  0.0426  0.2389
    1W        W40289  15.290  12.097   3.622 -0.3048 -0.3614 -0.1726
    1W        W40290  16.884   8.352   0.917 -0.4258  0.2651  0.2349
    1W        W40291   3.379  16.172   1.211 -0.2195 -0.0828  0.2534
    1W        W40292  15.786  15.496   2.539  0.2733 -0.0958 -0.1049
    1W        W40293   5.358  25.959   1.032 -0.3945  0.1624 -0.4236
    1W        W40294  24.482  13.090   2.272 -0.1185 -0.1535 -0.3968
    1W        W40295   5.376   9.116   7.916 -0.1854 -0.3691 -0.1295
    1W        W40296  29.424  20.229   8.110 -0.0481 -0.0444 -0.0430
    1W        W40297  11.495  30.342   2.722 -0.1968 -0.1528 -0.1347
    1W        W40298  12.771  28.367   0.654 -0.1010  0.2035 -0.0632
    1W        W40299  19.123  12.171   0.969 -0.0020  0.1714  0.0918
    1W        W40300  23.289  13.956   8.100 -0.4486 -0.1008  0.0190
    1W        W40301  19.373  21.154   7.008  0.2109 -0.1545 -0.1921
    1W        W40302   3.281  17.745   8.234 -0.0302  0.0215  0.0649
    1W        W40303  10.254   2.084   9.044  0.1079  0.2749 -0.1016
    1W        W40304  27.453   2.259   3.478 -0.1452 -0.0644  0.2859
    1W        W40305   8.628  21.611   1.448  0.1796 -0.0590 -0.0693
    1W        W40306  10.090  21.941   1.740 -0.2426 -0.1603  0.0552
    1W        W40307  16.265   5.077   2.764 -0.1757  0.0808 -0.1728
    1W        W40308  28.714   3.915   9.021  0.0149 -0.0860 -0.2094
    1W        W40309   1.696   2.716   1.103  0.2389 -0.0053 -0.0646
    1W        W40310  29.532  28.992   8.794 -0.0296  0.1399  0.1644
    1W        W40311  22.240  12.980   1.928  0.0028  0.1432  0.0162
    1W        W40312   3.257  27.095   0.796  0.0160 -0.4798  0.1526
    1W        W40313  26.846  21.711   8.547  0.1838  0.3189  0.0089
    1W        W40314   1.680  25.463   0.791  0.0195  0.0851  0.0002
    1W        W40315  16.467  20.323   6.750 -0.1009 -0.1664  0.0485
    1W        W40316  15.508  27.532   0.053  0.2650  0.2743 -0.0629
    1W        W40317  29.108   8.827   6.605 -0.0435 -0.0267  0.2108
    1W        W40318   2.722  22.639   8.755  0.2548 -0.3057 -0.3941
    1W        W40319   3.788  23.227   0.247  0.0740  0.0787  0.0607
    1W        W40320   2.592  19.351   9.190  0.0571  0.0705 -0.0423
    1W        W40321  27.635  25.995   8.528  0.1952 -0.0700 -0.1958
    1W        W40322  24.555  26.528   2.876  0.0953  0.0281  0.0421
    1W        W40323  17.438   3.466   0.662  0.2004 -0.0755 -0.1433
    1W        W40324  10.768  18.279   2.317  0.0429 -0.2552 -0.1905
    1W        W40325   1.898  25.413   9.198  0.1027 -0.3110  0.2820
    1W        W40326  16.648  15.184   7.737 -0.1462  0.1041 -0.1919
    1W        W40327   4.777   6.762   7.773 -0.0216 -0.0117  0.1318
    1W        W40328   1.035  20.625   8.678 -0.1512 -0.0633 -0.1563
    1W        W40329   1.940  19.166   6.681 -0.1041  0.0717 -0.0201
    1W        W40330   6.792  21.611   8.509 -0.1047  0.4946  0.0901
    1W        W40331   2.557   4.228   0.940  0.0732 -0.0279  0.1737
    1W        W40332  29.148   3.260   6.746 -0.1273  0.0488 -0.0464
    1W        W40333   2.321  18.126   1.368 -0.1869  0.0104  0.0178
    1W        W40334  24.771   4.125   1.034 -0.2943  0.0010 -0.1414
    1W        W40335  23.972  20.565   6.425  0.0347 -0.0987 -0.0938
    1W        W40336  19.078  15.902   7.495 -0.0563 -0.0597  0.2981
    1W        W40337   6.334  29.691   7.213  0.1763 -0.0155  0.0719
    1W        W40338   8.333   2.723   8.015  0.1624  0.1588 -0.0891
    1W        W40339  15.606  12.968   0.846 -0.0407  0.2656  0.1046
    1W        W40340   2.083   8.344   0.134  0.1696 -0.0899 -0.2278
    1W        W40341  15.586   9.321   1.025 -0.2361 -0.0573 -0.0656
    1W        W40342  27.926  24.623   0.910  0.3087 -0.0473  0.2887
    1W        W40343  10.169  10.770   8.825 -0.2958 -0.0919  0.0440
    1W        W40344  20.481  13.913   2.111 -0.1236  0.2805 -0.0622
    1W        W40345  11.244  30.146   0.391  0.0803 -0.1229 -0.1427
    1W        W40346  14.626  27.692   8.131  0.1044 -0.0243  0.2432
    1W        W40347   9.505  19.185   7.393  0.0283  0.0400  0.1597
    1W        W40348  16.660  14.980   6.452 -0.1870 -0.1074 -0.0788
    1W        W40349  19.095  22.048   1.462 -0.0275 -0.0111 -0.3761
    1W        W40350  17.205  27.945   8.133  0.0076  0.3377 -0.1383
    1W        W40351  15.880  21.228   7.925  0.1040  0.0595 -0.3416
    1W        W40352   0.015   9.719   8.935 -0.1469  0.0698  0.1228
    1W        W40353  18.348  28.565   1.993  0.3459 -0.0273  0.3315
    1W        W40354  18.911  26.499   9.142 -0.2576 -0.1752  0.3434
    1W        W40355   5.890  17.444   7.948 -0.1913 -0.0393  0.1658
    1W        W40356  24.313   3.957   8.890 -0.0808 -0.0477 -0.1669
    1W        W40357  16.216  21.107   8.270 -0.2559 -0.0427 -0.2208
    1W        W40358   3.535  27.108   1.526 -0.0474  0.1345  0.0635
    1W        W40359   6.458  10.858   6.578 -0.1198 -0.0690 -0.0906
    1W        W40360  17.470  12.040   0.971 -0.2270  0.2606  0.1235
    1W        W40361   0.244  29.448   0.493 -0.0258  0.0676  0.3103
    1W        W40362  26.194  23.286   1.976 -0.1005 -0.1326 -0.2101
    1W        W40363  18.288  25.841   9.050  0.2048  0.0009 -0.0124
    1W        W40364  26.565  20.884   8.985 -0.1128  0.1330  0.0013
    1W        W40365  29.280  21.889   7.643  0.1553 -0.1367 -0.1593
    1W        W40366  16.407   0.709   9.170 -0.1291  0.5221  0.1498
    1W        W40367   9.287  24.908   5.778 -0.2035  0.0486  0.0964
    1W        W40368  20.807   2.685   3.420 -0.2098  0.0743  0.0056
    1W        W40369   3.243   3.194   8.425 -0.0511 -0.0832 -0.0014
    1W        W40370  24.638  20.966   8.883 -0.2748 -0.2193 -0.1075
    1W        W40371   7.542  26.196   3.109  0.0973  0.4614 -0.0678
    1W        W40372  16.082  22.376   0.030 -0.0156  0.0364  0.4623
    1W        W40373  29.295   9.013   8.479 -0.1121  0.0297  0.1592
    1W        W40374   3.613  28.382   0.585  0.0991 -0.0146 -0.4492
    1W        W40375  19.494   8.224   2.223  0.0838  0.0581  0.0129
    1W        W40376   8.798  11.784   6.892 -0.0726 -0.0750  0.1155
    1W        W40377  19.281  19.091   9.054  0.1230 -0.1666 -0.1198
    1W        W40378  10.064  29.480   2.205  0.1766  0.0427 -0.0766
    1W        W40379  24.978  14.086   7.312 -0.3562  0.1842  0.0667
    1W        W40380  23.801  14.132   6.642 -0.1076 -0.4411  0.3138
    1W        W40381   3.964  24.961   7.486  0.2055 -0.1806  0.2399
    1W        W40382   6.716   4.667   8.160 -0.0659 -0.0640 -0.0304
    1W        W40383  20.461  17.402   7.454  0.0270 -0.0836  0.0475
    1W        W40384   6.249   2.754   3.241 -0.0765  0.0438  0.2123
    1W        W40385   8.362  19.180   9.223  0.0359  0.3848 -0.0476
    1W        W40386  29.207  24.073   6.799  0.3172 -0.0847 -0.1141
    1W        W40387   7.399   6.443   1.516  0.0358 -0.1491 -0.3267
    1W        W40388   3.940  26.767   1.836 -0.1147 -0.3309  0.2721
    1W        W40389  11.969   9.819   7.598  0.1472 -0.0831 -0.4025
    1W        W40390  27.206   9.821   6.694  0.2536 -0.2507 -0.0454
    1W        W40391  28.610  13.979   7.024 -0.3924 -0.0991 -0.0722
    1W        W40392  30.200  17.717   8.061  0.3242 -0.0761  0.0981
    1W        W40393  24.634  22.085   1.624  0.1621 -0.2000  0.0150
    1W        W40394  29.213   8.596   8.237 -0.2358  0.1801  0.1260
    1W        W40395   7.262  28.366   2.263  0.0640  0.1205  0.2315
    1W        W40396  17.457  11.383   1.109 -0.1294 -0.1416 -0.3177
    1W        W40397  19.607  17.568   5.459 -0.1813  0.0395  0.1750
    1W        W40398  10.715   5.887   6.771  0.0844 -0.0706  0.2874
    1W        W40399  15.800   2.964   1.136 -0.0063  0.1393  0.1208
    1W        W40400   7.909  15.999   0.677 -0.4002 -0.0558 -0.2392
    1W        W40401  12.914  22.009   6.680  0.1094  0.1435  0.1557
    1W        W40402  16.585  15.518   7.214  0.2165  0.1664 -0.0940
    1W        W40403  27.853   2.726   1.558  0.1744  0.0363  0.2236
    1W        W40404  16.964  25.013   2.715 -0.2353  0.1286 -0.0452
    1W        W40405   8.992   6.749   0.283  0.0131  0.4163  0.1581
    1W        W40406  20.964   9.588   7.840  0.0382 -0.4277 -0.2385
    1W        W40407   3.519  13.246   6.406 -0.1302 -0.0616 -0.0454
    1W        W40408  18.968  16.172   0.278 -0.3748 -0.0230  0.2693
    1W        W40409  17.737  16.419   7.850 -0.1666 -0.1365  0.0252
    1W        W40410   7.240  27.631   0.754 -0.0419  0.1616  0.2769
    1W        W40411   9.517  17.753   8.019  0.3794  0.2800 -0.0421
    1W        W40412  21.024   1.356   1.926 -0.3039  0.2121 -0.0504
    1W        W40413   6.938   6.591   8.538  0.2334  0.0116 -0.2747
    1W        W40414  19.991  11.284   2.460  0.3927 -0.1565 -0.2335
    1W        W40415  18.185  16.787   6.654 -0.0985  0.2849 -0.0870
    1W        W40416   8.088  10.133   7.271 -0.1011 -0.1698 -0.0793
    1W        W40417  30.087  14.250   6.905  0.3305 -0.0551  0.2456
    1W        W40418  26.344  13.339   8.639 -0.0237 -0.0922 -0.1048
    1W        W40419  13.972  19.384   0.169  0.0621 -0.1864  0.0098
    1W        W40420   2.850  16.474   7.611 -0.2175 -0.0878  0.0931
    1W        W40421  19.933  27.250   0.292 -0.0212  0.3987  0.3091
    1W        W40422   4.534   6.488   1.268 -0.1203  0.1487  0.0125
    1W        W40423  15.475   2.125   2.156  0.2778 -0.0026 -0.0672
    1W        W40424  25.040   6.081   2.652 -0.1120 -0.2038 -0.0879
    1W        W40425  14.769  13.820   1.884 -0.1722  0.0409  0.1702
    1W        W40426  15.824  28.213   0.580  0.0453 -0.1680 -0.2258
    1W        W40427   9.869  28.076   8.626  0.2399 -0.0352 -0.3774
    1W        W40428  22.104  23.933   6.998  0.1139  0.1691  0.1921
    1W        W40429  26.912   2.239   1.548 -0.1181 -0.2021 -0.1570
    1W        W40430  18.718  22.299   6.419 -0.0782 -0.0652  0.3075
    1W        W40431  25.608  24.529   7.933 -0.0156  0.0406 -0.1286
    1W        W40432  10.815  22.749   0.713 -0.1314  0.0230 -0.2387
    1W        W40433   6.778  13.093   0.183  0.2254  0.0862 -0.1381
    1W        W40434  21.153  20.801   8.038  0.0629 -0.0010  0.1535
    1W        W40435  13.587  14.695   3.704  0.0929 -0.0961 -0.1189
    1W        W40436   0.264  26.881   0.858 -0.0294  0.1173 -0.2859
    1W        W40437   6.883  21.418   8.033  0.2494 -0.2145 -0.0147
    1W        W40438   3.502   8.070   8.528  0.1921  0.1475  0.0238
    1W        W40439   0.370  20.147   0.967 -0.0135  0.0858  0.0876
    1W        W40440  15.871   5.082   2.342 -0.1337  0.0104 -0.0106
    1W        W40441  20.558  10.157   0.874  0.2265  0.0596  0.0618
    1W        W40442  29.912  23.352   8.182  0.1421  0.1131 -0.0287
    1W        W40443  22.683  24.637   7.950 -0.2142  0.2721  0.0284
    1W        W40444  19.344   8.351   7.413  0.0016  0.0784  0.3421
    1W        W40445  10.723  23.538   8.163  0.0185  0.0277  0.0752
    1W        W40446  13.970   2.036   1.901 -0.0375 -0.2728  0.0316
    1W        W40447  30.039  10.280   8.600 -0.2456  0.1476 -0.0415
    1W        W40448   4.250  24.743   2.600 -0.0518 -0.3286  0.0992
    1W        W40449  14.235  20.318   0.675  0.3682 -0.1028  0.1657
    1W        W40450   6.551  15.839   8.142 -0.3173 -0.2057  0.0888
    1W        W40451  20.905  17.209   7.380  0.0740  0.1824  0.1234
    1W        W40452  22.335   3.786   1.203  0.0101  0.1393 -0.1127
    1W        W40453   9.360  10.967   9.102 -0.1277  0.0125 -0.1182
    1W        W40454   5.122   7.830   7.738  0.0087  0.1084 -0.1988
    1W        W40455  27.794  15.255   7.198 -0.0923 -0.1125 -0.1858
    1W        W40456  13.535  23.731   2.289 -0.0030  0.2489 -0.1261
    1W        W40457   8.237  21.097   5.606 -0.2938  0.0440  0.0189
    1W        W40458  29.111  20.933   8.176  0.0710  0.1081 -0.0270
    1W        W40459   5.620  16.569   7.918  0.0031 -0.1651 -0.0092
    1W        W40460   7.171   1.172   1.796  0.0358 -0.0950  0.3766
    1W        W40461  12.321   1.534   9.043 -0.0086 -0.0091 -0.0806
    1W        W40462  19.817   8.299   8.961  0.1258 -0.0748 -0.2366
    1W        W40463  15.900  18.018   1.307 -0.4357 -0.1983  0.1701
    1W        W40464  26.677   0.999   1.455  0.0956  0.0137 -0.2579
    1W        W40465  28.045  29.776   1.755 -0.1863  0.1003 -0.0508
    1W        W40466  17.166  27.786   0.579 -0.1482 -0.1083 -0.1056
    1W        W40467  19.156  24.614   7.946 -0.1130  0.0410 -0.0309
    1W        W40468   8.818  21.470   1.942 -0.1305 -0.1958 -0.2242
    1W        W40469  14.508  14.564   7.765  0.0759 -0.1081  0.1790
    1W        W40470  27.039  16.066   6.922 -0.0742 -0.0748 -0.0706
    1W        W40471  27.413  12.011   7.172 -0.1055  0.2828 -0.1996
    1W        W40472   3.302   8.737   0.145 -0.0435  0.1512  0.2393
    1W        W40473   1.181   7.675   8.294 -0.1414 -0.3082  0.0522
    1W        W40474  25.624   7.974   0.166  0.2194  0.2093 -0.0987
    1W        W40475   8.264  12.129   2.587 -0.2904 -0.1304 -0.0816
    1W        W40476  13.820  30.286   7.819  0.2874  0.1246  0.1187
    1W        W40477  25.987   9.019   2.283 -0.0841 -0.1828 -0.2616
    1W        W40478   6.871  14.723   0.331  0.0248  0.0224  0.1920
    1W        W40479   0.230   2.336   3.174 -0.1337 -0.0805 -0.2090
    1W        W40480  26.689  22.782   0.766 -0.1932  0.7057 -0.3437
    1W        W40481  28.683  21.928   9.165  0.4015  0.1423 -0.2339
    1W        W40482  16.707   8.937   2.610 -0.2513  0.1821  0.2804
    1W        W40483   6.484   0.968   2.900 -0.0358  0.0278 -0.0568
    1W        W40484   7.869  26.096   0.760 -0.1203  0.0151  0.3414
    1W        W40485  27.107  25.900   1.896 -0.1541 -0.1442 -0.2405
    1W        W40486   2.717  28.782   8.656  0.0673  0.1850  0.0734
    1W        W40487  19.758   5.029   8.884  0.0591 -0.4607  0.0461
    1W        W40488  12.930  28.534   1.124 -0.0159  0.0732 -0.0708
    1W        W40489  25.428  24.718   7.512 -0.0696  0.0486  0.1342
    1W        W40490   9.993  23.148   1.139 -0.0734  0.0909  0.0475
    1W        W40491  10.466  12.644   9.028 -0.1247  0.0412 -0.0099
    1W        W40492  29.888  23.777   0.280 -0.1112 -0.0718  0.0270
    1W        W40493   4.066  18.271   1.078 -0.0007  0.1361  0.4176
    1W        W40494  25.046  22.739   8.420  0.3721 -0.2331 -0.1977
    1W        W40495   4.549  28.540   3.431 -0.1075 -0.1105  0.2580
    1W        W40496   7.036  10.392   0.387  0.0840 -0.4269  0.0235
    1W        W40497   0.077  29.937   3.140  0.0526 -0.0936 -0.1945
    1W        W40498   3.186  14.315   8.445 -0.1818 -0.0503 -0.1347
    1W        W40499  19.323  29.696   0.137  0.0666 -0.1229  0.1567
    1W        W40500  11.201  12.459   7.435 -0.0905  0.1716  0.0247
    1W        W40501  25.754  25.014   8.268 -0.0975 -0.1610 -0.2299
    1W        W40502   7.636  29.250   3.095  0.2417 -0.1131  0.1925
    1W        W40503  30.082  14.361   1.850  0.3104  0.4048  0.2870
    1W        W40504   2.334   2.081   7.387  0.2526 -0.0166  0.1852
    1W        W40505  19.105   5.338   7.110 -0.0240 -0.5188  0.1764
    1W        W40506   5.969  12.020   2.046 -0.0299  0.0738  0.0375
    1W        W40507  22.616   9.730   6.303 -0.3543  0.3027 -0.0472
    1W        W40508  26.180  26.286   7.868 -0.0299 -0.0046  0.1120
    1W        W40509   7.947   3.990   1.561  0.0726  0.3059 -0.2734
    1W        W40510   6.021  14.410   0.188 -0.1481  0.0113  0.4094
    1W        W40511  18.091  25.784   6.894  0.0583  0.0046  0.0217
    1W        W40512  25.542  25.929   3.093  0.2073  0.2017 -0.0099
    1W        W40513   1.201  26.910   8.192 -0.1013 -0.2936  0.0398
    1W        W40514  29.285   4.517   2.440  0.1346  0.1213 -0.2131
    1W        W40515  12.240  27.188   0.036  0.0921  0.1473 -0.2628
    1W        W40516   9.490  28.250   2.528 -0.2155 -0.1155  0.1691
    1W        W40517   8.342   3.782   8.270 -0.1794  0.0810  0.0516
    1W        W40518  21.578  29.395   0.312  0.2645 -0.0406  0.0578
    1W        W40519  14.625   2.963   0.735 -0.0651 -0.1426 -0.1422
    1W        W40520  12.929  16.419   7.608  0.1349  0.0239 -0.0945
    1W        W40521  16.045   4.209   1.855 -0.2521  0.0946  0.3241
    1W        W40522   8.411  29.322   9.037 -0.1014  0.0399 -0.1300
    1W        W40523  10.063   2.925   0.040  0.0435  0.0675  0.0855
    1W        W40524  23.173  11.801   8.178  0.1439 -0.0077  0.1407
    1W        W40525  21.686  28.878   1.713 -0.0004 -0.2278  0.1430
    1W        W40526  13.079   7.975   6.488  0.0130 -0.1520  0.0445
    1W        W40527  11.696  13.940   7.869  0.0028  0.2227  0.0767
    1W        W40528  16.315   4.791   8.544 -0.2128 -0.4270 -0.0189
    1W        W40529  19.517   0.559   0.514  0.1363 -0.2680  0.3060
    1W        W40530  21.579   7.427   6.276  0.0509 -0.0043 -0.3231
    1W        W40531  23.454  29.042   6.343  0.2224  0.0945  0.1404
    1W        W40532  22.427  10.354   6.425  0.2053 -0.1678  0.2874
    1W        W40533  20.471  24.568   9.046 -0.1550  0.1077  0.1021
    1W        W40534  10.845  22.993   8.193 -0.1848  0.0905  0.0804
    1W        W40535   5.794   4.528   3.551  0.0098 -0.1064  0.2167
    1W        W40536  26.078  22.305   7.999  0.0762  0.2387  0.2443
    1W        W40537   3.637   0.650   7.600 -0.0466 -0.1016  0.0911
    1W        W40538   5.241   5.283   2.401  0.1540  0.2575 -0.3977
    1W        W40539  16.685  30.030   8.438  0.0180 -0.0102 -0.0348
    1W        W40540   7.404  25.418   3.149 -0.0438 -0.0798 -0.0581
    1W        W40541  14.859  16.305   8.526  0.0195  0.0481 -0.0189
    1W        W40542   2.732   1.098   7.326  0.0791 -0.0126  0.1716
    1W        W40543  14.236  17.361   8.490  0.1661 -0.1041  0.4658
    1W        W40544  14.052  10.167   2.406  0.0145  0.0715 -0.2433
    1W        W40545  26.076  19.705   0.086 -0.3496 -0.1853 -0.2064
    1W        W40546   0.485   9.660   8.621  0.0360  0.3502  0.1741
    1W        W40547   6.931   9.743   7.866  0.2184  0.0045 -0.0544
    1W        W40548  29.969   4.450   3.184  0.2051 -0.1927  0.0907
    1W        W40549  23.453   1.918   0.794  0.1931 -0.1200 -0.0734
    1W        W40550  18.250   7.914   2.179  0.0159  0.0961 -0.2308
    1W        W40551  17.925   3.576   0.890 -0.1122  0.1672  0.1861
    1W        W40552   0.619   3.296   6.827 -0.1902  0.1063  0.0798
    1W        W40553  21.067  12.891   0.605 -0.0203 -0.1603 -0.2560
    1W        W40554  17.960  11.933   0.413  0.2066 -0.2089  0.0561
    1W        W40555  27.353   9.923   2.124 -0.1479 -0.0071  0.1181
    1W        W40556  16.057  25.113   5.816  0.1291 -0.0924 -0.1817
    1W        W40557  23.214  30.343   0.474  0.2402 -0.0926 -0.0202
    1W        W40558  11.888  16.515   2.320  0.1085  0.1479  0.0602
    1W        W40559  26.277  14.927   0.091  0.1259  0.0688 -0.0011
    1W        W40560   0.151  26.544   2.563 -0.2259  0.2482 -0.0463
    1W        W40561  27.016  21.518   7.897  0.0671  0.4294 -0.0688
    1W        W40562  10.835  10.721   2.436 -0.1244 -0.1252  0.1426
    1W        W40563  25.522   8.837   2.172 -0.0799  0.2395 -0.0056
    1W        W40564  14.655   7.168   1.767  0.2305  0.0560  0.1197
    1W        W40565  19.535  17.130   9.177  0.0038 -0.3872 -0.0062
    1W        W40566  28.218   8.841   1.214 -0.3243 -0.2539  0.2733
    1W        W40567  22.805  15.406   8.392 -0.1746  0.0257 -0.0423
    1W        W40568   3.428  28.643   4.116 -0.3273 -0.0109  0.1407
    1W        W40569  25.312  20.409   7.384 -0.1754 -0.1442 -0.2290
    1W        W40570  10.815   4.535   0.073 -0.0298 -0.0022  0.0534
    1W        W40571  11.222   6.451   0.822  0.0909  0.0896 -0.1877
    1W        W40572  18.256  10.004   7.057  0.0142 -0.0195 -0.0482
    1W        W40573  21.974  27.626   1.043 -0.5122  0.2542  0.4142
    1W        W40574  22.975   7.495   2.021  0.2986  0.0059  0.0743
    1W        W40575  19.618   7.927   7.700  0.2360  0.0986  0.0061
    1W        W40576   8.240   7.176   0.171 -0.0141  0.0164 -0.0602
    1W        W40577  30.154  15.553   0.025 -0.1709  0.1035  0.2259
    1W        W40578  14.439   4.558   0.560 -0.0381  0.0835  0.3671
    1W        W40579  30.324  20.058   0.044  0.1630 -0.0263 -0.2831
    1W        W40580  10.571  29.082   7.770 -0.0501  0.0065  0.0283
    1W        W40581  21.469   2.463   2.924 -0.1737  0.1100  0.0272
    1W        W40582   0.853   0.672   3.322  0.3992 -0.0143 -0.3047
    1W        W40583  18.420   6.511   6.643 -0.1920 -0.2305  0.0307
    1W        W40584   4.505  24.337   2.854  0.2323  0.0625  0.1913
    1W        W40585  29.904   6.164   3.204 -0.1060 -0.1316  0.0359
    1W        W40586  15.374  27.223   2.388  0.2476  0.1506  0.0871
    1W        W40587   6.525  24.351   8.647  0.2875 -0.1906  0.3323
    1W        W40588  22.258   1.154   6.878  0.1407  0.3816 -0.0984
    1W        W40589   3.041  15.966   1.536  0.1743 -0.3992 -0.3779
    1W        W40590   2.299  27.646   2.539  0.0561  0.0721 -0.0619
    1W        W40591   7.539   5.685   2.183 -0.1713  0.0570  0.2529
    1W        W40592   5.901  14.338   1.165 -0.0025 -0.0618 -0.1586
    1W        W40593   3.049  22.551   9.249  0.0765  0.0252  0.3743
    1W        W40594  24.917   9.188   9.149 -0.1403  0.0141  0.0719
    1W        W40595   4.196  16.616   1.047 -0.1170  0.4000  0.0239
    1W        W40596  16.264  18.841   8.360 -0.1947  0.1704  0.1055
    1W        W40597  21.683   2.808   1.185  0.1513 -0.0039  0.1301
    1W        W40598   6.296   2.381   4.021 -0.1899 -0.0524 -0.2940
    1W        W40599  20.369  14.512   7.418 -0.2404  0.0203  0.2175
    1W        W40600   8.244  16.887   7.070 -0.0665 -0.2068 -0.1071
    1W        W40601  24.487   7.858   2.204  0.2532  0.0150  0.4829
    1W        W40602  12.738  20.150   2.335  0.0184  0.0351  0.0135
    1W        W40603   5.511  27.902   1.903  0.4116 -0.3051 -0.1295
    1W        W40604  19.730  29.831   0.278 -0.1465  0.1725 -0.0311
    1W        W40605  25.611  25.970   1.533 -0.1980 -0.0025 -0.4662
    1W        W40606  27.230   1.494   1.504 -0.1760 -0.2662  0.2140
    1W        W40607   0.053  12.237   0.087 -0.0522  0.1931  0.1199
    1W        W40608  24.057  23.378   1.133  0.1106  0.2434  0.1103
    1W        W40609   7.713  16.367   1.922 -0.0186 -0.1414 -0.1855
    1W        W40610  29.966   1.716   8.350 -0.0084 -0.3612  0.0619
    1W        W40611  19.072   2.696   0.636 -0.1801  0.1983 -0.0527
    1W        W40612  14.827  16.199   1.031 -0.4504 -0.1189  0.0545
    1W        W40613  15.799   2.473   6.751  0.3721  0.1865  0.3102
    1W        W40614  14.920  28.979   6.543  0.0911  0.3064 -0.1587
    1W        W40615   5.907  18.765   1.544 -0.1515  0.0921 -0.0329
    1W        W40616  12.940   6.948   8.125 -0.0350  0.2387 -0.0895
    1W        W40617  17.943  21.097   7.011  0.1618 -0.0559 -0.1237
    1W        W40618   8.666   5.438   7.662 -0.1723 -0.1663 -0.0800
    1W        W40619   0.001   3.682   3.291  0.1409  0.0007 -0.5598
    1W        W40620   2.322  14.452   8.700  0.0677  0.0645 -0.1760
    1W        W40621  29.074  12.804   8.181 -0.0495 -0.2536  0.2303
    1W        W40622   0.216  10.068   9.231 -0.1097  0.3735  0.2317
    1W        W40623   5.130  26.148   9.221  0.4184  0.0638  0.1237
    1W        W40624  24.954  15.364   2.276  0.1099 -0.1218 -0.2021
    1W        W40625   9.310   6.411   0.064  0.3961  0.0361 -0.1805
    1W        W40626   9.467  27.283   2.928  0.0079  0.0704 -0.0064
    1W        W40627   1.804  26.043   0.600  0.1748 -0.1115  0.1195
    1W        W40628  24.883  25.961   2.461 -0.0806  0.0908  0.1635
    1W        W40629  16.753  25.820   0.525  0.1064  0.0529 -0.0186
    1W        W40630  22.249  16.668   1.991  0.0702 -0.1771 -0.0622
    1W        W40631  24.452  25.548   8.215  0.2872 -0.0401 -0.3368
    1W        W40632  25.106  23.062   8.857  0.2654  0.1796 -0.1284
    1W        W40633  17.701  29.666   0.892  0.1999  0.2526 -0.1153
    1W        W40634   5.070   0.811   8.739  0.1938  0.0290  0.1905
    1W        W40635   4.245  17.693   7.078 -0.3696  0.0352  0.1256
    1W        W40636  26.959   0.777   8.107  0.0238  0.0363 -0.0563
    1W        W40637   5.755  10.504   1.120 -0.1172  0.1340 -0.2838
    1W        W40638  15.326   9.674   1.960  0.1066  0.2798 -0.0681
    1W        W40639   3.127  19.583   1.510  0.1613  0.0663 -0.0867
    1W        W40640  21.273  10.666   9.013  0.3801 -0.0094 -0.1723
    1W        W40641   1.633  17.627   0.103  0.3749  0.1423  0.2262
    1W        W40642   6.613  13.810   0.676  0.2260 -0.0144 -0.0224
    1W        W40643   1.727   0.469   0.484 -0.1842  0.4085  0.0546
    1W        W40644  18.341  26.847   9.046  0.0222  0.2209  0.1831
    1W        W40645  21.729  29.809   1.240  0.1610  0.0332  0.1277
    1W        W40646   1.772  23.032   2.063  0.0624 -0.1906 -0.1050
    1W        W40647  18.087  12.407   8.854 -0.0364  0.1618  0.1074
    1W        W40648  10.090  21.375   1.762 -0.4096 -0.2123 -0.0214
    1W        W40649  21.837  24.897   7.138  0.2950  0.0249 -0.3424
    1W        W40650  16.302  20.584   8.135  0.1369  0.3433  0.3355
    1W        W40651   5.980  25.706   7.305 -0.2231  0.2340  0.0287
    1W        W40652  29.238   1.123   0.688  0.2165  0.1600  0.1059
    1W        W40653  28.228  13.464   7.621 -0.0874  0.0937 -0.2623
    1W        W40654  22.543  23.862   8.364 -0.0789  0.2361 -0.0378
    1W        W40655  10.012  14.250   8.966  0.3434  0.0450  0.3150
    1W        W40656  23.838   9.547   2.099  0.1084 -0.0993  0.0516
    1W        W40657  27.026  22.442   1.661 -0.2213  0.0233 -0.1550
    1W        W40658  14.326  19.357   0.531  0.0374 -0.0290  0.2192
    1W        W40659   8.161   1.998   0.648  0.1488 -0.0738 -0.0315
    1W        W40660  25.923  18.949   7.472 -0.0932  0.0179  0.3433
    1W        W40661  24.317   3.647   1.539 -0.1145  0.1572  0.1330
    1W        W40662  14.196   3.093   8.631  0.0415  0.0369 -0.2141
    1W        W40663   0.731  19.142   6.759  0.0535 -0.2181 -0.0358
    1W        W40664  19.117  24.681   0.695 -0.0848 -0.0732  0.2261
    1W        W40665  27.480  29.937   0.302  0.1289  0.1868 -0.3333
    1W        W40666  27.052   1.867   1.034 -0.0095  0.1007 -0.0291
    1W        W40667   5.977   1.791   3.259 -0.0767  0.1043 -0.0333
    1W        W40668  25.634  24.781   2.735  0.0631  0.1506  0.2189
    1W        W40669  25.826  21.185   1.774  0.4278 -0.3101 -0.4116
    1W        W40670  27.175   7.204   2.130 -0.0598 -0.1873  0.2112
    1W        W40671   0.592   2.949   1.798 -0.1116 -0.2655 -0.0967
    1W        W40672  27.887  16.365   0.752 -0.0242  0.0952 -0.0414
    1W        W40673  18.995   1.163   1.003  0.0368 -0.3093  0.5429
    1W        W40674  10.420  14.502   0.917 -0.0778  0.2456 -0.1865
    1W        W40675  17.400  26.286   9.253 -0.1105 -0.2889  0.1867
    1W        W40676  29.624  10.564   8.512  0.0568  0.0806 -0.2632
    1W        W40677   1.274   4.076   0.750  0.0894 -0.1532 -0.0040
    1W        W40678  12.818  18.854   5.917 -0.1836  0.0149  0.2618
    1W        W40679  28.937  27.856   2.393 -0.0751 -0.1825  0.1413
    1W        W40680  13.545   7.133   8.777  0.1189  0.0113  0.1170
    1W        W40681  29.219  19.088   1.024  0.1152  0.0969  0.2957
    1W        W40682   1.191  17.444   6.607  0.1704  0.0076 -0.2040
    1W        W40683  16.187   5.859   1.657 -0.0614  0.2516  0.0275
    1W        W40684  12.174  10.014   8.188  0.1434 -0.3674  0.0166
    1W        W40685   5.175  28.707   2.661  0.2570 -0.2377 -0.3066
    1W        W40686   2.021   4.696   8.301  0.0611  0.1827  0.2868
    1W        W40687   7.016  25.721   8.901 -0.3261  0.0599 -0.2548
    1W        W40688  26.665  14.558   0.314  0.1024 -0.3366 -0.0127
    1W        W40689  22.278   2.985   0.647 -0.3213 -0.0034 -0.0519
    1W        W40690   9.192  21.329   0.615  0.2053  0.0850  0.3703
    1W        W40691  23.769   9.742   8.454  0.1083 -0.0100 -0.0245
    1W        W40692  19.701   8.088   1.819  0.0557  0.0493  0.0682
    1W        W40693   4.804  27.124   0.978 -0.0373 -0.0452 -0.0129
    1W        W40694   0.356  22.480   1.980  0.2423 -0.1406  0.1900
    1W        W40695  25.941  23.683   6.287 -0.0594 -0.3130  0.1512
    1W        W40696   1.494  24.903   0.758 -0.1965 -0.2399  0.0872
    1W        W40697  18.542  20.205   6.140  0.2426 -0.1723 -0.0556
    1W        W40698   5.031   4.925   8.113 -0.2151  0.0343  0.1293
    1W        W40699   8.246   4.694   7.317  0.0746  0.1274 -0.0036
    1W        W40700  18.576  22.085   0.654  0.0345  0.0105 -0.0704
    1W        W40701   8.340  22.098   0.477 -0.0866  0.1622  0.2074
    1W        W40702  18.726   9.540   0.241 -0.1098  0.1558 -0.0642
    1W        W40703   7.302  24.825   8.584  0.1160  0.2061 -0.1981
    1W        W40704  11.159  23.958   1.973 -0.1875 -0.1528  0.2060
    1W        W40705  15.006  27.303   8.505 -0.0800 -0.2257  0.0113
    1W        W40706   2.656  24.353   9.255  0.0104  0.0651  0.1151
    1W        W40707  15.023   9.918   0.099 -0.1705  0.0745 -0.1992
    1W        W40708  23.913   1.504   8.848 -0.1367  0.0114  0.2952
    1W        W40709  11.786  16.343   0.901  0.0490  0.1903 -0.0444
    1W        W40710  11.245  26.545   7.036 -0.4400  0.1155  0.2582
    1W        W40711  19.775   0.899   2.018  0.2786 -0.0130  0.2296
    1W        W40712  14.698  10.596   7.395 -0.1946 -0.1696  0.1330
    1W        W40713  20.957   0.750   0.263 -0.0136  0.1119  0.0046
    1W        W40714  12.722  24.197   7.138  0.0465  0.2390 -0.3394
    1W        W40715  20.705   7.872   0.966  0.1073 -0.1540 -0.1059
    1W        W40716  23.780  25.389   7.104 -0.1744 -0.1655  0.3437
    1W        W40717  30.292  11.642   1.125  0.0859 -0.1576 -0.3300
    1W        W40718  26.201   0.473   2.635 -0.0494 -0.3006 -0.2370
    1W        W40719   0.895  21.415   0.523  0.0512  0.0428 -0.0198
    1W        W40720  10.302   9.120   1.749  0.0565 -0.1306  0.2356
    1W        W40721  22.342  30.168   9.246  0.1118  0.2566  0.1281
    1W        W40722   4.734  25.612   2.262 -0.0727  0.0237 -0.0712
    1W        W40723  26.579   7.930   7.149 -0.2327  0.2252  0.0824
    1W        W40724   7.265   3.815   7.573 -0.3212 -0.2279 -0.2407
    1W        W40725   6.836   4.928   3.255  0.1079  0.0294 -0.1794
    1W        W40726  23.244  25.612   1.172  0.1251  0.1645  0.1820
    1W        W40727  22.566  26.341   1.272 -0.1926  0.1671 -0.2261
    1W        W40728  29.815  17.193   6.876 -0.0603 -0.2479 -0.0611
    1W        W40729  30.217  19.859   8.669 -0.1054 -0.1299  0.4679
    1W        W40730   5.157  25.248   8.757  0.0309  0.3679  0.0793
    1W        W40731   9.274  26.001   3.078  0.2269  0.0945  0.1365
    1W        W40732  20.505   6.135   2.242 -0.3484  0.1024 -0.3307
    1W        W40733  20.315   4.685   6.824  0.0167  0.0701  0.0845
    1W        W40734   7.913  17.574   9.169 -0.0192 -0.0238  0.3309
    1W        W40735   2.184   8.682   8.307  0.0989 -0.1737  0.0091
    1W        W40736  22.068   6.109   2.059 -0.0094 -0.1652 -0.0547
    1W        W40737   2.931   0.697   2.170 -0.2328  0.0968  0.2048
    1W        W40738   0.406   3.927   8.689  0.3464  0.1652 -0.3288
    1W        W40739  22.971   8.439   1.200 -0.1601  0.1317 -0.1450
    1W        W40740  12.361  13.560   2.121  0.0064 -0.2233  0.1806
    1W        W40741   0.355   8.644   0.125  0.0956 -0.1164 -0.1720
    1W        W40742  26.482  10.513   8.187  0.1023  0.1383 -0.0283
    1W        W40743   7.805   5.565   8.619 -0.2630  0.2260  0.3291
    1W        W40744  28.455  10.897   7.406  0.1665  0.2746 -0.0218
    1W        W40745  13.660  21.890   0.081 -0.0451  0.1083 -0.0480
    1W        W40746  18.661  25.997   1.211 -0.1025 -0.1723  0.0345
    1W        W40747   9.998   2.046   8.110  0.0969  0.1587 -0.1632
    1W        W40748  14.678   3.975   8.321 -0.3759  0.1136  0.0419
    1W        W40749  11.889  20.411   0.206 -0.0380  0.0911  0.3028
    1W        W40750   7.147  17.386   7.856 -0.2188  0.1485  0.2754
    1W        W40751  29.920  25.704   2.322  0.1252  0.0744 -0.0178
    1W        W40752  12.240   6.192   1.316  0.0774 -0.1690  0.2003
    1W        W40753   2.363  20.539   0.168 -0.0147  0.2781  0.0657
    1W        W40754  21.404  20.075   5.833 -0.2725  0.2476  0.1462
    1W        W40755  26.186   7.064   2.334 -0.0461  0.2533  0.2087
    1W        W40756  14.171  20.825   1.637 -0.1348 -0.0846 -0.0209
    1W        W40757  28.096  11.369   0.129  0.0472 -0.0915  0.0299
    1W        W40758  13.188  20.630   1.213 -0.3036 -0.3283  0.0956
    1W        W40759  11.537   4.434   6.312 -0.0882 -0.0270 -0.0451
    1W        W40760  13.383   1.942   1.714 -0.2449  0.1351 -0.1762
    1W        W40761   8.382  26.251   0.552 -0.1699 -0.0752  0.1343
    1W        W40762   1.010  14.435   7.289  0.0973 -0.2909 -0.2707
    1W        W40763  20.573   8.090   0.523  0.0917 -0.4847 -0.0971
    1W        W40764  29.112  29.956   8.979 -0.2210 -0.1161  0.0651
    1W        W40765  15.951  23.555   1.615 -0.2684  0.0339  0.1162
    1W        W40766   8.874  28.050   1.424  0.0110  0.1754  0.3561
    1W        W40767  24.037  13.579   8.758 -0.0554 -0.0205 -0.1813
    1W        W40768  19.451  27.961   8.102 -0.4435 -0.2602  0.0564
    1W        W40769  18.663  24.542   1.993  0.0672 -0.0492 -0.2553
    1W        W40770   1.556  25.823   1.471  0.0116  0.1016  0.0308
    1W        W40771  12.434   0.938   2.429  0.0316 -0.0874  0.2831
    1W        W40772  20.719   1.579   0.715  0.1085 -0.2033 -0.1506
    1W        W40773  27.796   7.438   7.389 -0.3401  0.0003  0.0278
    1W        W40774  14.524  23.148   8.653  0.1646 -0.4294 -0.1348
    1W        W40775  28.392  18.199   8.943  0.1456  0.1042  0.1629
    1W        W40776   5.628   8.387   8.894  0.2563 -0.3321  0.2154
    1W        W40777  19.151  28.855   8.013  0.0532 -0.1737  0.0673
    1W        W40778  15.530  15.701   8.350  0.1472 -0.1878 -0.1053
    1W        W40779   8.206  11.248   1.143 -0.0957  0.3199 -0.3800
    1W        W40780  25.090   5.888   0.352  0.1820 -0.2400  0.3825
    1W        W40781   0.855  14.079   1.303  0.1424 -0.0694 -0.0785
    1W        W40782   5.740  24.228   2.069  0.0904 -0.1741 -0.0177
    1W        W40783   9.813  26.421   9.090 -0.0054 -0.1191 -0.1584
    1W        W40784   6.245   7.437   2.563 -0.3164 -0.1491 -0.1891
    1W        W40785  19.805   4.618   6.979 -0.1558 -0.1388  0.0593
    1W        W40786  18.930  19.206   1.469 -0.0941  0.0758 -0.0206
    1W        W40787  23.451  29.939   8.405  0.2401  0.0554 -0.2032
    1W        W40788  14.221  26.926   0.042 -0.1895  0.3786  0.0744
    1W        W40789   6.764   5.901   0.241  0.0002  0.0568  0.0243
    1W        W40790   8.364  25.656   1.373  0.1713 -0.0114 -0.1624
    1W        W40791  28.084   8.672   1.705 -0.0132 -0.1396  0.0417
    1W        W40792  25.301  22.194   6.880 -0.0670 -0.1304  0.0716
    1W        W40793  30.107  13.755   8.827  0.3954 -0.1423 -0.0302
    1W        W40794   6.198   7.639   6.841  0.3301  0.0739  0.1279
    1W        W40795  22.798  19.470   5.844  0.1845  0.0504 -0.2238
    1W        W40796  18.310   5.114   0.251  0.0170  0.0221  0.4893
    1W        W40797   7.520   1.382   2.157 -0.0655 -0.1388  0.0369
    1W        W40798  12.582  12.936   8.057  0.0207  0.1885  0.2739
    1W        W40799  15.311   2.323   7.969 -0.0058 -0.0345 -0.1926
    1W        W40800  20.223  25.880   7.893 -0.0864  0.0508  0.0760
    1W        W40801  26.501  17.494   7.717  0.2799  0.3420  0.1941
    1W        W40802   7.602  22.277   2.518 -0.0135  0.1947  0.2278
    1W        W40803  16.041  11.635   8.773  0.0444  0.0692 -0.0087
    1W        W40804  21.237   3.150   1.198  0.1876  0.0873 -0.3163
    1W        W40805  13.953   7.661   6.921 -0.2167  0.0186 -0.0746
    1W        W40806  23.908   3.985   9.168  0.0416 -0.1818  0.0387
    1W        W40807  18.820  24.012   0.104 -0.0171 -0.3108 -0.1284
    1W        W40808  12.200  25.207   2.140  0.0610  0.2018  0.0649
    1W        W40809   2.764  27.783   8.649  0.2601 -0.0066  0.1559
    1W        W40810  17.258  29.014   2.933  0.1905  0.2635 -0.1263
    1W        W40811   6.742  15.244   6.266  0.2477  0.0652 -0.0005
    1W        W40812  26.338  28.414   8.581  0.4175  0.0616  0.1365
    1W        W40813  10.388  18.471   2.087  0.1985 -0.1460  0.3103
    1W        W40814   8.255  26.439   0.984 -0.2360 -0.2997  0.0633
    1W        W40815   4.618  11.143   7.589  0.1967 -0.0994  0.0913
    1W        W40816  15.715   5.492   0.353 -0.0048  0.0151  0.1261
    1W        W40817  30.096  16.027   1.956  0.0444  0.0499 -0.1299
    1W        W40818  25.353   8.642   2.607  0.0081  0.0144 -0.2924
    1W        W40819  21.013  26.738   6.535  0.2034  0.0187 -0.3532
    1W        W40820  21.871  29.436   3.003 -0.0762  0.1814 -0.2079
    1W        W40821   9.337  21.639   7.879 -0.1764  0.0054  0.1131
    1W        W40822  25.941  13.409   7.753 -0.3002 -0.2178 -0.0581
    1W        W40823   8.623  13.823   8.650  0.1411  0.0293  0.1002
    1W        W40824  16.226   5.449   2.343 -0.1752 -0.0017  0.2308
    1W        W40825  27.944  28.262   1.167  0.1364 -0.0218 -0.0455
    1W        W40826  26.376   4.141   0.202  0.1037  0.1855  0.1798
    1W        W40827  23.592  28.341   2.024  0.0122 -0.1011  0.2562
    1W        W40828   2.110  10.674   7.694 -0.2049  0.0226 -0.1693
    1W        W40829  21.015   9.143   7.434  0.1235  0.0954 -0.2275
    1W        W40830  26.817  14.028   1.290  0.2833  0.4907  0.0539
    1W        W40831   1.269  13.305   1.646 -0.1426 -0.1061  0.0073
    1W        W40832   0.404  24.536   0.967 -0.0219  0.0371  0.0327
    1W        W40833  25.665  27.171   0.552  0.2063 -0.2647  0.3076
    1W        W40834  14.391  15.518   0.233  0.0413  0.0085  0.0169
    1W        W40835  30.128  20.649   7.141 -0.0201  0.0682  0.0241
    1W        W40836   5.563  28.786   8.778  0.0534  0.0888 -0.1298
    1W        W40837  18.141  11.217   6.908 -0.1119 -0.4168  0.0564
    1W        W40838  18.707  16.581   8.028  0.1344 -0.1709 -0.0740
    1W        W40839   7.549  13.224   8.276 -0.4415  0.1097 -0.0910
    1W        W40840  28.244  17.036   0.234  0.3656 -0.1490 -0.3670
    1W        W40841   5.478   1.098   8.743 -0.4936 -0.0019 -0.0825
    1W        W40842  28.479   6.204   2.664  0.4534 -0.2264  0.2667
    1W        W40843  11.145   4.134   1.229  0.2549  0.0545 -0.4224
    1W        W40844  19.120   7.946   0.982 -0.1918  0.0693  0.2322
    1W        W40845   8.804   4.847   6.373  0.1542 -0.2794 -0.1475
    1W        W40846   5.272  17.633   8.997  0.0583  0.3259 -0.3348
    1W        W40847   2.643   2.428   6.858  0.0014  0.2990  0.4002
    1W        W40848  22.192  18.161   9.092  0.1449 -0.1558 -0.1224
    1W        W40849   2.124  11.688   7.882  0.1144 -0.0570  0.1907
    1W        W40850  18.116   5.516   0.490 -0.3433 -0.1195  0.2827
    1W        W40851  20.169  22.276   6.154  0.1200 -0.3117 -0.3591
    1W        W40852  23.813  28.889   6.942 -0.0994 -0.0194  0.0694
    1W        W40853  16.050  11.394   3.742  0.1731  0.0586  0.0815
    1W        W40854  17.161   1.208   1.747 -0.1859  0.4695 -0.0066
    1W        W40855   7.738  16.946   2.356 -0.0851  0.2798 -0.0094
    1W        W40856  26.661  12.027   7.534  0.0981  0.0048  0.0717
    1W        W40857  26.929   5.457   3.837  0.0110  0.1567  0.2735
    1W        W40858   5.977  12.543   8.522 -0.2589 -0.0491 -0.1992
    1W        W40859  16.087  19.578   2.067 -0.3519  0.1091 -0.1614
    1W        W40860   6.522  22.772   0.837 -0.0697 -0.0957 -0.4413
    1W        W40861  18.561  24.248   7.979 -0.1259  0.3829 -0.1645
    1W        W40862  22.335  23.502   8.723 -0.0795  0.2260  0.1195
    1W        W40863  17.270  25.836   7.915  0.0563  0.2545  0.0665
    1W        W40864   0.177  19.122   6.685  0.0226 -0.1238  0.0634
    1W        W40865  11.155   7.192   8.041 -0.0974 -0.3439 -0.0789
    1W        W40866  15.998  18.534   2.345 -0.2074  0.0218  0.1648
    1W        W40867  26.839  30.233   7.872  0.2643 -0.2356  0.1091
    1W        W40868  26.946  21.906   0.290  0.1597  0.0212 -0.2279
    1W        W40869   2.385  30.023   2.024  0.0204 -0.0384  0.0827
    1W        W40870  23.006  25.771   8.903  0.0709  0.1127 -0.1059
    1W        W40871  25.287  11.058   6.615  0.2740 -0.1446 -0.4516
    1W        W40872   2.837   5.006   8.044 -0.2127 -0.1850 -0.3457
    1W        W40873   4.209   6.320   0.876 -0.2054  0.0728  0.0135
    1W        W40874  16.180   1.620   7.383  0.2599 -0.0047  0.2306
    1W        W40875  14.183  10.857   0.779 -0.2518 -0.1800 -0.0781
    1W        W40876  30.164  13.835   6.318  0.0529 -0.0932 -0.0383
    1W        W40877  20.551  17.264   0.277 -0.1999  0.2515 -0.0201
    1W        W40878   7.088   6.496   2.363 -0.1051  0.3612  0.0774
    1W        W40879   7.801  16.055   6.188  0.2843 -0.2329 -0.1841
    1W        W40880  24.883  21.123   6.712 -0.0784 -0.2195 -0.0948
    1W        W40881   3.525  27.379   7.630  0.1103  0.2202  0.0515
    1W        W40882  17.531   7.528   1.634 -0.0194 -0.1438 -0.0745
    1W        W40883  28.308  23.344   8.736  0.1814  0.3182 -0.0566
    1W        W40884  12.309   4.201   8.970 -0.0419 -0.2903  0.0773
    1W        W40885   9.257  19.501   7.837  0.2775  0.0047  0.0276
    1W        W40886   7.501   0.890   1.991  0.2987 -0.2944 -0.2066
    1W        W40887  14.593  26.972   8.580 -0.4221  0.2192 -0.1062
    1W        W40888   4.825  25.581   0.763 -0.1607 -0.0296  0.2815
    1W        W40889  29.966  20.191   8.930  0.1187  0.1765  0.1238
    1W        W40890  12.712  16.439   2.317 -0.0588 -0.1746 -0.1702
    1W        W40891   3.606  27.893   7.826 -0.1435 -0.0821  0.0993
    1W        W40892  12.804  21.600   0.967 -0.2902 -0.0742 -0.1886
    1W        W40893  24.857  25.694   1.943 -0.0400 -0.2075  0.0567
    1W        W40894  11.915  12.267   3.738 -0.2242  0.3078  0.0188
    1W        W40895  19.396   1.197   1.864 -0.0442  0.1378 -0.2024
    1W        W40896  25.051   4.717   1.137  0.0243 -0.3087  0.1728
    1W        W40897  29.784   3.222   7.288  0.1624  0.3102 -0.2120
    1W        W40898  16.379  21.554   1.300 -0.1765 -0.1361 -0.2799
    1W        W40899  23.011  23.268   1.362 -0.0752 -0.0836 -0.1925
    1W        W40900   8.817  17.221   6.341  0.0591 -0.0865 -0.0653
    1W        W40901  22.211  29.003   7.896  0.1705 -0.0285  0.0014
    1W        W40902   9.812  29.589   6.441 -0.0374  0.0483  0.2279
    1W        W40903   6.367  23.962   1.105  0.0511  0.0103  0.2898
    1W        W40904  29.241  15.729   1.976  0.1599 -0.0164  0.0660
    1W        W40905  29.528   7.522   7.068 -0.0086 -0.0346  0.0689
    1W        W40906   7.920   8.642   1.712 -0.1588 -0.0843 -0.0821
    1W        W40907  17.898  13.211   1.347 -0.0910  0.0209  0.1004
    1W        W40908  28.004   0.571   3.155  0.0964  0.1733 -0.2128
    1W        W40909  28.235  22.922   0.904 -0.0154 -0.0502  0.2134
    1W        W40910   5.538  26.066   7.401 -0.1189 -0.2655  0.0912
    1W        W40911  24.887   7.617   1.228 -0.0139 -0.1509  0.1891
    1W        W40912  12.949   1.998   2.625  0.2118  0.1739  0.2258
    1W        W40913  13.834  19.685   9.084 -0.1386 -0.0021 -0.1944
    1W        W40914  13.113   6.844   9.271  0.0858 -0.0617 -0.2463
    1W        W40915  19.189  28.880   0.443  0.0579  0.1730 -0.3228
    1W        W40916   7.957  16.042   7.542  0.0529 -0.1269 -0.2434
    1W        W40917   5.253  16.972   8.498 -0.2278  0.1189  0.0339
    1W        W40918   2.009  14.275   6.961  0.1588  0.2851 -0.1165
    1W        W40919  11.116   5.945   0.216 -0.1366  0.0294  0.1714
    1W        W40920  22.358   4.320   2.014  0.3916 -0.2139  0.2191
    1W        W40921  10.869  10.781   7.683  0.0413 -0.1334  0.1308
    1W        W40922  12.749  28.894   8.219  0.2233 -0.0705 -0.0307
    1W        W40923  17.539  26.517   6.499 -0.2330 -0.0048  0.3900
    1W        W40924   0.534  24.466   8.255 -0.2133 -0.1450  0.2296
    1W        W40925  17.494  12.538   0.725 -0.0526  0.2087 -0.1314
    1W        W40926  14.583  11.590   3.421  0.0874 -0.2337  0.0011
    1W        W40927   0.751  11.740   7.380  0.1781  0.1955  0.1294
    1W        W40928  23.790   1.674   2.248 -0.3375  0.1760 -0.1431
    1W        W40929  28.313   9.218   1.775 -0.0410 -0.2580 -0.2373
    1W        W40930  16.331   4.174   7.614  0.1572  0.1664 -0.1195
    1W        W40931  18.744   1.919   8.994  0.0427  0.2227 -0.1084
    1W        W40932  12.444  15.178   7.253  0.0895  0.2114  0.1349
    1W        W40933   9.316  11.063   8.578  0.0332 -0.1401  0.0022
    1W        W40934  11.804  25.418   8.959  0.3041 -0.3157 -0.2061
    1W        W40935  24.786   8.484   6.843 -0.2308  0.0504  0.1709
    1W        W40936  28.839   7.071   1.106 -0.3172  0.0495 -0.1446
    1W        W40937  14.460  23.788   7.413  0.0744 -0.2303 -0.3133
    1W        W40938  28.370  27.173   2.288 -0.1396  0.0401  0.0521
    1W        W40939  10.425   1.068   1.329  0.0834  0.0571 -0.4149
    1W        W40940   7.634  23.967   6.769 -0.2620 -0.2275 -0.0584
    1W        W40941   5.622  11.954   6.979  0.0739 -0.3189  0.0605
    1W        W40942   8.252  30.176   7.919  0.0283  0.2244  0.1602
    1W        W40943  21.483   3.340   8.172 -0.2815  0.1188  0.2236
    1W        W40944   8.072  14.034   8.570  0.0158  0.2269 -0.1391
    1W        W40945   6.249  22.554   7.049 -0.0124  0.2948 -0.0904
    1W        W40946   9.473   4.847   2.586 -0.4012  0.1559  0.2061
    1W        W40947  15.107  13.064   0.856  0.6758 -0.2107 -0.1284
    1W        W40948  18.334  19.873   1.413  0.0220  0.1495  0.1120
    1W        W40949  14.790  21.717   8.974  0.1008  0.2635  0.1081
    1W        W40950   2.557  15.234   0.376 -0.2272 -0.1630  0.1421
    1W        W40951  23.953  16.094   7.178 -0.0635  0.1067  0.0663
    1W        W40952  18.349  26.509   6.771 -0.0214  0.1104 -0.3634
    1W        W40953   1.815  15.454   7.691 -0.1114  0.1074 -0.0816
    1W        W40954  22.794  19.051   8.152 -0.0438 -0.1955 -0.0472
    1W        W40955  13.707  26.795   9.002  0.1125  0.1093 -0.0756
    1W        W40956   0.199   8.504   1.710 -0.0152  0.0493 -0.0103
    1W        W40957   8.447   2.019   6.967  0.2012 -0.2231  0.1996
    1W        W40958   3.298  26.028   1.288  0.1263  0.1518  0.0390
    1W        W40959   7.742  17.900   5.999 -0.0274 -0.0826  0.0940
    1W        W40960  28.841  22.163   7.807  0.0019 -0.3656  0.0684
    1W        W40961  12.610   2.606   0.300 -0.0728 -0.2136  0.0180
    1W        W40962  21.176  19.293   1.250  0.2262  0.0310  0.2313
    1W        W40963  29.631  25.256   8.520 -0.3371 -0.2852  0.0570
    1W        W40964   5.015   5.909   7.160  0.3337 -0.1454  0.2222
    1W        W40965  21.603  12.610   1.194  0.1586  0.2447 -0.3401
    1W        W40966  22.680   4.693   1.300  0.1236 -0.0322 -0.2181
    1W        W40967  21.531  14.626   6.796 -0.2665  0.2173  0.5695
    1W        W40968  10.516  27.506   6.935  0.0306  0.0293  0.0206
    1W        W40969  19.389  30.120   0.607 -0.0630  0.1832  0.1120
    1W        W40970   3.886  27.545   8.072  0.2503  0.2835  0.2415
    1W        W40971  17.674   5.894   8.121 -0.0218  0.3181 -0.1073
    1W        W40972   2.665   7.625   1.503  0.2684  0.2428  0.2182
    1W        W40973   9.280  19.691   7.338 -0.1825  0.3297  0.2347
    1W        W40974   4.669  28.384   2.153 -0.0697 -0.1797  0.0670
    1W        W40975  12.474   7.054   7.869 -0.1902 -0.0958 -0.0399
    1W        W40976  14.844   2.164   2.619  0.1865  0.0384 -0.1040
    1W        W40977  14.104  10.651   9.130 -0.1199  0.0761 -0.0249
    1W        W40978   5.331   5.300   8.294 -0.0702  0.2922  0.0908
    1W        W40979  27.743  29.969   6.989 -0.1606 -0.3186  0.1354
    1W        W40980  14.856  24.889   9.008 -0.2346 -0.2222  0.0714
    1W        W40981  22.658  18.627   5.964  0.1928 -0.0735  0.0470
    1W        W40982   2.244   3.556   8.846  0.2696  0.1709 -0.0072
    1W        W40983   8.544  13.903   7.328  0.0990 -0.1177 -0.1270
    1W        W40984  19.919   9.012   8.461 -0.4504 -0.1803 -0.3673
    1W        W40985  10.643   7.886   1.481  0.3245 -0.4310 -0.0908
    1W        W40986   6.521   5.201   2.938  0.1390 -0.0135 -0.2299
    1W        W40987   2.107  13.865   0.544 -0.0262  0.0583 -0.2709
    1W        W40988  10.659   3.771   7.217  0.1691  0.2458 -0.0212
    1W        W40989  18.036  21.772   7.632 -0.1785  0.1006 -0.2044
    1W        W40990  27.856  11.347   8.955  0.1025  0.0923 -0.1642
    1W        W40991  12.389  20.843   7.342 -0.0996 -0.0379  0.0533
    1W        W40992  20.264  26.648   3.496 -0.3385 -0.1669 -0.1087
    1W        W40993  19.877   5.992   0.550  0.0149 -0.0106  0.2125
    1W        W40994  21.648  23.786   6.897 -0.3272 -0.1294  0.0949
    1W        W40995  11.360  24.870   8.422  0.1955 -0.0940 -0.0179
    1W        W40996   4.147  27.261   8.456 -0.3688 -0.0910 -0.1060
    1W        W40997   3.086  13.062   8.857 -0.0847 -0.0357 -0.4432
    1W        W40998  22.327  19.766   6.885 -0.1029  0.2197 -0.1746
    1W        W40999   1.283  19.976   6.475 -0.0594 -0.0101  0.1078
    1W        W41000  17.609  14.302   6.852  0.0679 -0.1727  0.1764
    1W        W41001  27.815  24.470   0.024  0.3058 -0.1847 -0.1180
    1W        W41002  29.895   6.100   1.057  0.0556  0.3451 -0.0282
    1W        W41003   0.013   2.999   1.071 -0.3049  0.1357 -0.0476
    1W        W41004  29.505   4.133   3.333 -0.0362 -0.3364 -0.1909
    1W        W41005  18.974  25.943   7.187 -0.2788 -0.0304  0.2426
    1W        W41006   7.479   2.941   1.329 -0.2922  0.1024 -0.1503
    1W        W41007  23.497  23.716   7.730  0.1781 -0.3058 -0.0503
    1W        W41008   6.609   4.571   2.957  0.1667  0.0381 -0.0271
    1W        W41009  23.059  10.710   5.716 -0.0221  0.0149 -0.0353
    1W        W41010   9.950   6.745   3.092  0.0087 -0.2946 -0.2435
    1W        W41011  26.730  17.848   5.933 -0.0683 -0.0430  0.0318
    1W        W41012  27.966  15.444   1.253  0.1155 -0.1436 -0.0384
    1W        W41013  20.776  29.672   6.827 -0.2009 -0.0345  0.1486
    1W        W41014  24.593  13.327   8.611  0.0502  0.1270  0.0977
    1W        W41015   9.280  18.200   6.644 -0.1859  0.1030 -0.1255
    1W        W41016  18.864   1.148   0.543 -0.3297 -0.0023 -0.1792
    1W        W41017  26.494  17.426   6.240 -0.1775  0.0821  0.1722
    1W        W41018  28.927  26.811   0.074  0.2551 -0.1818 -0.1008
    1W        W41019  24.235  14.586   6.546 -0.1024 -0.1289  0.0698
    1W        W41020  10.344   5.659   7.238 -0.2072 -0.0419  0.3855
    1W        W41021  14.768   6.990   7.268  0.1349 -0.0476  0.0835
    1W        W41022  13.077  14.600   1.764 -0.1003 -0.2524 -0.0270
    1W        W41023  15.687  10.356   0.408 -0.0652 -0.2077  0.0408
    1W        W41024  28.364  19.676   6.801  0.0842 -0.0575  0.0926
    1W        W41025  17.378  27.766   6.729 -0.1347 -0.2743 -0.0927
    1W        W41026  14.562   0.572   2.167  0.1456 -0.3862 -0.0694
    1W        W41027  14.414  13.102   1.249  0.4163 -0.1497 -0.3265
    1W        W41028  10.957  19.563   1.010 -0.1453 -0.0811  0.2925
    1W        W41029  17.039  20.515   3.018  0.0230 -0.0029  0.0412
    1W        W41030  26.071   0.608   0.117 -0.0647 -0.0213 -0.0920
    1W        W41031  22.233  27.190   7.579 -0.1190 -0.0266 -0.0696
    1W        W41032  25.045   5.212   7.163 -0.1058 -0.0057  0.1891
    1W        W41033  17.205   3.512   5.944 -0.3063  0.0310  0.0217
    1W        W41034  27.957  26.982   8.689 -0.1595  0.0588 -0.2277
    1W        W41035   0.209  17.705   2.119  0.1483 -0.0995 -0.2395
    1W        W41036   6.131  20.789   7.631  0.0562 -0.1696  0.0264
    1W        W41037  12.430  12.069   0.483  0.0421 -0.1215  0.2854
    1W        W41038  10.007   2.356   6.805  0.0092  0.3476  0.1810
    1W        W41039  21.603   2.441   7.930 -0.1360  0.1599  0.1296
    1W        W41040  22.596  21.896   1.062  0.1311  0.3527 -0.4387
    1W        W41041   4.083  10.723   1.226  0.0978  0.0456  0.0577
    1W        W41042   0.383  21.532   0.855 -0.1007  0.2152 -0.0588
    1W        W41043  27.575  22.684   6.704 -0.1938  0.1941 -0.0479
    1W        W41044   3.534  13.339   8.817 -0.2039 -0.0151  0.0293
    1W        W41045  27.296   4.267   7.261 -0.0513  0.2163 -0.2839
    1W        W41046  28.720   4.576   2.961  0.1218  0.3176  0.1980
    1W        W41047   1.938  27.437   1.303  0.0346 -0.3484  0.1389
    1W        W41048   8.221   6.345   1.012  0.2485  0.1169 -0.1718
    1W        W41049  19.393   6.543   2.137 -0.0234 -0.1813  0.1908
    1W        W41050  29.977   2.659   3.747 -0.1593  0.2784  0.0348
    1W        W41051   3.020   4.629   8.304  0.3188 -0.2536  0.0108
    1W        W41052  24.075  23.168   0.601  0.2587  0.0748  0.0202
    1W        W41053  25.039   8.523   7.331 -0.0246  0.0877  0.4416
    1W        W41054  21.984  22.938   1.718 -0.0726  0.1818  0.0827
    1W        W41055  19.118  19.256   6.249 -0.0739 -0.0544  0.1674
    1W        W41056  28.098  14.417   7.275 -0.0310  0.0710 -0.1865
    1W        W41057   3.825  15.461   7.813  0.0772 -0.1770 -0.0047
    1W        W41058   0.829   0.664   6.717 -0.2369 -0.3731  0.1090
    1W        W41059   5.843   2.918   3.491  0.2693 -0.0082  0.1662
    1W        W41060  27.382   4.777   1.371  0.1683  0.1278  0.0875
    1W        W41061  21.185   0.752   8.357  0.2039 -0.0436 -0.0773
    1W        W41062   5.247   9.755   2.559  0.0940  0.1467  0.0950
    1W        W41063  22.085  12.452   2.007 -0.1295  0.2642  0.1395
    1W        W41064  12.049   3.534   0.134 -0.2275  0.1716 -0.1057
    1W        W41065  22.071  20.467   0.730 -0.1328 -0.0356  0.1756
    1W        W41066   6.277   8.526   6.920 -0.0514  0.0380 -0.1423
    1W        W41067   5.139   7.330   6.866  0.3593  0.1554  0.0560
    1W        W41068   2.875  20.565   1.905 -0.3646  0.0352  0.0687
    1W        W41069   6.439  23.532   8.198 -0.2002  0.0169 -0.0030
    1W        W41070   1.930  25.841   1.081 -0.0136  0.0298 -0.1733
    1W        W41071  22.915  25.464   6.696 -0.0090 -0.0544 -0.4515
    1W        W41072  23.970  11.075   0.601  0.1024 -0.2583  0.1377
    1W        W41073  28.518  29.067   1.084 -0.1466 -0.0028 -0.2740
    1W        W41074  30.238  17.435   7.098  0.2406  0.2287  0.2693
    1W        W41075  25.390  24.928   6.663  0.4023  0.2568  0.0091
    1W        W41076  19.543   7.655   2.237 -0.0758 -0.4053  0.0104
    1W        W41077  30.129  28.568   2.763 -0.1277 -0.0475 -0.1373
    1W        W41078   3.851  27.190   0.150 -0.3366  0.2536  0.1283
    1W        W41079   7.493  15.952   9.060 -0.2473  0.0665  0.0234
    1W        W41080  12.567  13.912   2.459  0.0873  0.6606  0.0659
    1W        W41081  23.242   9.454   9.220 -0.2105  0.0538  0.0590
    1W        W41082  24.179  21.170   1.605 -0.2886  0.0714  0.4278
    1W        W41083  11.797  25.717   1.000  0.0314 -0.0746 -0.0170
    1W        W41084   8.979  22.373   1.043  0.1906  0.2209  0.0204
    1W        W41085  18.871  27.891   1.902 -0.0088  0.3050 -0.0249
    1W        W41086  25.553  12.980   6.214  0.1710 -0.0816 -0.2705
    1W        W41087  15.925  20.512   0.720 -0.0019  0.2025  0.1435
    1W        W41088  28.141   9.367   1.299  0.0790  0.4421  0.0469
    1W        W41089   8.425  19.837   7.582 -0.2232 -0.1793  0.1839
    1W        W41090  26.549  29.275   8.251  0.2708 -0.0771 -0.0104
    1W        W41091  21.297  12.379   9.251 -0.1157  0.0134  0.2425
    1W        W41092   7.347   7.496   6.538 -0.1746 -0.3821 -0.1020
    1W        W41093  17.805   0.725   6.520  0.1595  0.0089  0.1230
    1W        W41094   2.313  29.131   0.772 -0.0275 -0.1327 -0.1063
    1W        W41095  10.441  22.344   0.757  0.4449  0.1177 -0.0780
    1W        W41096  29.941  11.868   0.167 -0.3081 -0.2762  0.3572
    1W        W41097   8.903  29.569   0.371 -0.0971  0.2357 -0.4139
    1W        W41098  24.113  28.532   7.788 -0.0456  0.0547  0.0705
    1W        W41099  26.085   5.886   0.259 -0.1562  0.1204 -0.0902
    1W        W41100  26.177  29.218   7.844 -0.0491  0.3780  0.0177
    1W        W41101  21.283  11.165   8.103  0.0115  0.1020 -0.3073
    1W        W41102  16.833   2.273   0.961 -0.3664  0.0430 -0.0520
    1W        W41103   8.307   7.957   1.292  0.3598  0.2618  0.0066
    1W        W41104  18.329  29.129   9.066  0.0826  0.0479 -0.0030
    1W        W41105  14.877  15.873   2.289 -0.1388 -0.3680 -0.1293
    1W        W41106   5.914  24.091   1.015 -0.2286 -0.0225 -0.2074
    1W        W41107  10.774  20.316   1.493 -0.0507  0.0764  0.0162
    1W        W41108  13.145   9.923   1.240  0.0655 -0.0872 -0.1752
    1W        W41109  24.057  18.094   0.800 -0.1193  0.0348  0.1449
    1W        W41110  14.198  22.935   6.868  0.1501  0.5422  0.1178
    1W        W41111   2.317  23.495   0.799  0.0504  0.0322  0.1094
    1W        W41112   9.790   1.389   0.783  0.0204 -0.0614 -0.0085
    1W        W41113  12.444   6.671   7.525 -0.4044  0.0949  0.0348
    1W        W41114  30.104  23.151   1.438 -0.0867  0.4577  0.0042
    1W        W41115  11.055  25.569   2.245 -0.2833 -0.0117  0.2316
    1W        W41116   9.587   2.659   1.981  0.1946 -0.0789 -0.4554
    1W        W41117  15.994  25.219   7.244  0.0588  0.2941  0.1571
    1W        W41118   4.705  21.274   0.875 -0.0178 -0.1379 -0.0813
    1W        W41119  14.334  15.268   0.700  0.1181  0.1995 -0.1182
    1W        W41120   9.249  17.701   0.097  0.1393  0.0796 -0.2174
    1W        W41121   2.040  19.910   8.566 -0.3178  0.4115 -0.0437
    1W        W41122  26.525   2.673   2.917 -0.1302 -0.0632  0.1452
    1W        W41123  16.195  20.443   2.640 -0.0998  0.3218  0.1186
    1W        W41124  28.214   4.669   8.006  0.1954 -0.0478  0.0632
    1W        W41125  16.491  25.099   2.884  0.0005 -0.2185  0.1628
    1W        W41126  18.145   2.638   9.148 -0.0039 -0.3052 -0.0861
    1W        W41127   2.550   3.218   7.080 -0.1224 -0.1043  0.1893
    1W        W41128   9.357  30.049   2.482 -0.0370  0.1274  0.2050
    1W        W41129  23.302   8.212   1.507 -0.0463  0.0191 -0.0814
    1W        W41130  14.849  13.892   1.375 -0.1351 -0.0008 -0.2657
    1W        W41131  15.356   0.708   1.106  0.1552  0.0004 -0.1369
    1W        W41132   1.268   5.897   1.236 -0.1244 -0.0565 -0.0939
    1W        W41133  26.858  29.495   0.607  0.0612  0.0533 -0.3400
    1W        W41134  17.650  22.902   8.740 -0.0973 -0.0340  0.0894
    1W        W41135  18.928  12.817   1.429  0.2856  0.2600 -0.3407
    1W        W41136  21.411   6.784   0.745 -0.0391 -0.0612  0.1784
    1W        W41137   8.285  15.835   7.920 -0.0263  0.1085 -0.0445
    1W        W41138   2.245  28.139   0.257  0.0221 -0.1375 -0.1778
    1W        W41139   1.743  18.368   1.078  0.2969 -0.1372  0.0218
    1W        W41140  11.746  28.166   9.145  0.1938 -0.0314 -0.0295
    1W        W41141  21.327  20.007   8.253  0.1887  0.1197  0.0109
    1W        W41142   4.517  17.654   8.318  0.0253  0.1586  0.2270
    1W        W41143   6.246  15.572   6.259  0.0280 -0.0366  0.1752
    1W        W41144   7.930   1.284   8.159  0.2692  0.1274  0.1026
    1W        W41145   2.059  21.357   8.322  0.1024 -0.0023  0.1806
    1W        W41146   6.044  14.638   6.273  0.1923 -0.1397 -0.1517
    1W        W41147  19.475  24.334   6.359  0.2046 -0.2018  0.1303
    1W        W41148   5.406  23.702   8.852  0.1580 -0.0644 -0.1914
    1W        W41149   9.864  18.057   0.122  0.1587 -0.0116  0.0567
    1W        W41150  13.081   7.909   8.875 -0.2432 -0.1363 -0.0679
    1W        W41151  23.718   0.467   8.009  0.0364  0.1515  0.0556
    1W        W41152   7.243  24.878   7.607 -0.3713 -0.2065 -0.1778
    1W        W41153  10.583  11.794   0.068 -0.1115  0.3019 -0.0813
    1W        W41154  23.729  23.549   5.740 -0.1013  0.0530 -0.0140
    1W        W41155  14.468   6.649   1.745  0.1610 -0.1955  0.2356
    1W        W41156  27.183   4.848   8.638  0.1680  0.1727  0.2033
    1W        W41157   5.090  27.178   2.127  0.0965 -0.1914  0.2316
    1W        W41158  29.385   9.749   8.010 -0.1414 -0.1362  0.0392
    1W        W41159  20.701  17.232   2.611 -0.0503  0.1599  0.1338
    1W        W41160  19.731   9.516   1.003 -0.1131  0.2130 -0.1479
    1W        W41161  13.334   5.021   2.117  0.0080 -0.0631  0.1153
    1W        W41162   1.240  14.665   1.142  0.1558  0.1936 -0.1272
    1W        W41163   7.348   4.103   3.157 -0.0419 -0.0484  0.0351
    1W        W41164  17.287  16.232   6.150 -0.3687 -0.1083  0.0339
    1W        W41165  16.213   6.427   0.361 -0.1074 -0.0983  0.0170
    1W        W41166  10.379  19.381   9.131  0.2097  0.4339 -0.1481
    1W        W41167  22.618  19.910   8.771 -0.0515 -0.2717  0.0013
    1W        W41168  27.325   3.849   1.335  0.2050 -0.0244  0.0797
    1W        W41169  24.745  17.213   0.371 -0.1518  0.1295  0.0345
    1W        W41170  20.458  18.143   1.534 -0.1049 -0.0513 -0.1561
    1W        W41171  30.090   8.283   1.522 -0.1995  0.0753 -0.3006
    1W        W41172  18.010  30.012   1.905 -0.1378  0.0940  0.0641
    1W        W41173  19.874   0.818   2.555  0.2914  0.0721  0.2220
    1W        W41174  25.028   6.693   0.913 -0.1746 -0.0346 -0.1672
    1W        W41175  20.481  19.721   6.386 -0.6174 -0.0938 -0.1267
    1W        W41176  15.356   0.217   2.084 -0.0936  0.0560  0.5329
    1W        W41177  26.189   7.556   0.469 -0.0432 -0.0485  0.0283
    1W        W41178  11.052  11.529   1.493 -0.1455  0.0018 -0.1039
    1W        W41179  14.247  14.827   0.486  0.0826  0.0011  0.1353
    1W        W41180  10.486   5.981   6.282  0.0290  0.1980 -0.1959
    1W        W41181   0.878  24.969   0.933 -0.0908 -0.0245  0.0676
    1W        W41182  25.321  29.857   0.053  0.0647 -0.0462  0.0180
    1W        W41183  13.167   9.256   8.271  0.0895 -0.0732  0.0865
    1W        W41184  14.164  26.432   2.136  0.0239  0.1448  0.0937
    1W        W41185  24.428  20.896   0.119  0.0567 -0.1471  0.2464
    1W        W41186  27.144  12.270   1.514  0.0266 -0.0568 -0.0144
    1W        W41187   3.937  14.260   7.139  0.0432  0.1062 -0.2012
    1W        W41188   8.926   5.619   1.818 -0.3998  0.0818  0.1550
    1W        W41189  18.669  19.626   1.751  0.2595  0.0260  0.0956
    1W        W41190  24.218  22.616   2.232  0.0239 -0.0301  0.0387
    1W        W41191  11.794   7.822   0.579 -0.2025  0.1255 -0.5971
    1W        W41192  27.056  26.612   0.750 -0.0477  0.1888 -0.1440
    1W        W41193  16.224   6.817   8.775  0.0497  0.1644  0.1430
    1W        W41194   6.876  11.815   0.050  0.1076  0.0587 -0.2591
    1W        W41195  26.264  10.107   0.492 -0.1003  0.2074 -0.0947
    1W        W41196  29.816  23.172   0.950 -0.2874 -0.1754 -0.0192
    1W        W41197  26.130  17.174   8.430  0.2578  0.0363  0.2207
    1W        W41198  19.682  11.458   9.073 -0.0346 -0.1134  0.2292
    1W        W41199  24.809  18.906   1.071  0.0190 -0.2013 -0.2543
    1W        W41200   2.247  24.182   7.544 -0.3492 -0.0381 -0.1786
    1W        W41201   5.043   1.849   2.523  0.1532  0.1704  0.0323
    1W        W41202  21.695  13.915   1.617  0.1949  0.0591 -0.0049
    1W        W41203   4.176  24.440   1.661  0.1485  0.1560  0.1335
    1W        W41204  17.884  15.888   2.213 -0.0387  0.0443 -0.0537
    1W        W41205  13.106  24.983   7.533  0.0434 -0.1926  0.1433
    1W        W41206  12.590   6.865   2.540  0.2815 -0.1494 -0.1450
    1W        W41207  22.228   6.559   7.834  0.2692  0.2000 -0.1397
    1W        W41208  26.884   1.343   1.039 -0.2009 -0.3504  0.1943
    1W        W41209   1.392  21.848   1.252 -0.2697 -0.0870  0.0406
    1W        W41210   3.089  26.922   1.411 -0.2902 -0.0633 -0.0481
    1W        W41211   7.799  27.382   1.685 -0.1357 -0.1235 -0.3138
    1W        W41212  26.031   6.026   3.772 -0.0716 -0.1077 -0.1099
    1W        W41213  29.704   9.818   6.983 -0.1112 -0.2479 -0.1724
    1W        W41214  29.391  12.749   6.486  0.0948 -0.3706  0.4562
    1W        W41215  11.043  25.410   8.323 -0.2773  0.0298  0.0010
    1W        W41216  20.335   7.753   7.388  0.1391  0.0321 -0.3860
    1W        W41217   1.563  23.885   7.183  0.1263 -0.0488 -0.0374
    1W        W41218   3.913  10.224   7.440 -0.0336 -0.1797  0.1042
    1W        W41219  24.838   6.548   2.525  0.0910  0.2499 -0.1883
    1W        W41220  25.787   2.977   2.984  0.0258  0.0544  0.0569
    1W        W41221  14.042  20.644   8.179 -0.1936  0.1754  0.0645
    1W        W41222   2.424  19.023   0.326 -0.1013  0.1397 -0.1229
    1W        W41223  10.452  11.002   1.274  0.1046 -0.0519 -0.4988
    1W        W41224  12.747  21.535   5.819 -0.0111 -0.3003  0.2772
    1W        W41225  22.027   1.099   1.610  0.2252 -0.1812 -0.0373
    1W        W41226   7.552  19.256   7.410  0.0085 -0.4485  0.0632
    1W        W41227   4.973  10.177   2.545  0.0611  0.0433 -0.2565
    1W        W41228  11.648  30.116   0.732  0.0462 -0.2491  0.1731
    1W        W41229   0.654  20.001   1.901  0.4409 -0.0430  0.0722
    1W        W41230  13.165  18.322   6.874 -0.0144  0.4463 -0.1637
    1W        W41231   5.215   9.816   1.484 -0.0801 -0.0842 -0.1432
    1W        W41232  27.040  26.138   0.506  0.1649 -0.0557 -0.0192
    1W        W41233   8.197   3.850   7.424 -0.0670  0.0300 -0.0867
    1W        W41234  27.762  21.859   0.949  0.0197  0.0860 -0.3352
    1W        W41235  10.001  12.231   7.767  0.2735  0.0955  0.0230
    1W        W41236  17.134  20.137   1.146  0.1667  0.2060 -0.1337
    1W        W41237  12.852  14.202   1.560  0.0445 -0.0675 -0.1349
    1W        W41238   3.351  10.750   0.262 -0.0450 -0.0569  0.1970
    1W        W41239  27.670   2.348   2.087  0.0231  0.2559 -0.1165
    1W        W41240   7.999  13.032   7.585  0.1217  0.0950 -0.2403
    1W        W41241   5.626  16.921   0.842  0.0409 -0.0135 -0.0386
    1W        W41242  24.298  16.414   6.949  0.2108 -0.1386  0.1264
    1W        W41243   7.992   1.758   2.008 -0.1008  0.0979  0.3278
    1W        W41244  14.861  29.542   1.057  0.4557  0.1472  0.0501
    1W        W41245  12.848   0.267   0.259  0.1670 -0.1745  0.0026
    1W        W41246  29.347  16.987   6.735  0.2025 -0.2987 -0.0124
    1W        W41247   5.369   3.275   1.791  0.0579  0.1069  0.1811
    1W        W41248   3.432  26.414   2.063  0.1745 -0.2784  0.2514
    1W        W41249   2.930  16.099   6.806 -0.2295  0.1671  0.0788
    1W        W41250   5.188   2.742   8.530 -0.1948  0.0845  0.0293
    1W        W41251  12.129  30.110   2.030  0.2137  0.0944  0.0879
    1W        W41252   4.627  12.439   2.348  0.1636  0.0026  0.1746
    1W        W41253  22.357   2.252   6.824  0.0342 -0.1219  0.3148
    1W        W41254  13.585  30.249   0.743 -0.2487  0.2554 -0.1347
    1W        W41255   7.068  18.606   6.308 -0.0692 -0.1353  0.0489
    1W        W41256  19.562  17.295   0.468 -0.1213  0.2099  0.1299
    1W        W41257   8.706   3.228   0.781 -0.0261  0.0272  0.0081
    1W        W41258  25.396  29.377   0.888 -0.0224  0.0585 -0.1818
    1W        W41259  11.944  13.095   2.482  0.0536  0.0219 -0.0255
    1W        W41260   7.106  27.997   0.102 -0.2676 -0.1599 -0.0085
    1W        W41261   3.513  22.810   1.257 -0.0477  0.1451  0.0163
    1W        W41262   5.370   3.631   8.852  0.0250 -0.1015 -0.1342
    1W        W41263  22.180   5.247   1.681  0.1499  0.2711  0.1799
    1W        W41264  14.166  30.105   0.019 -0.3433  0.1672  0.0326
    1W        W41265  20.936  14.939   1.200 -0.0631  0.2286  0.1079
    1W        W41266   3.120  14.854   8.379  0.1592  0.0135 -0.3224
    1W        W41267   5.666  12.564   0.863  0.2459 -0.2928 -0.0239
    1W        W41268  29.605   5.076   6.485 -0.1831  0.1399 -0.0205
    1W        W41269   8.223  13.563   8.708  0.0836  0.1123 -0.0497
    1W        W41270  17.705  26.457   5.952  0.1470 -0.1052 -0.0953
    1W        W41271  13.477  14.600   0.797  0.1434  0.1427  0.1731
    1W        W41272   1.234   5.591   6.880  0.0480 -0.0840  0.4636
    1W        W41273  15.047  16.757   7.568  0.2123  0.0972  0.1752
    1W        W41274  20.259  26.278   6.884  0.0520  0.1398 -0.1206
    1W        W41275  30.168   2.274   9.077  0.1054  0.1902 -0.1126
    1W        W41276  15.787  17.665   2.559 -0.0931 -0.2333  0.0336
    1W        W41277   3.601   6.965   7.693 -0.0590 -0.3618 -0.1080
    1W        W41278   8.926  13.697   2.220 -0.0485  0.0353  0.3181
    1W        W41279   3.262  27.293   0.240  0.1495  0.0774 -0.3000
    1W        W41280  21.783   7.752   8.740 -0.1238 -0.2716 -0.2320
    1W        W41281   6.354  10.494   9.164 -0.0696 -0.0624  0.1031
    1W        W41282  16.299  21.379   0.752 -0.2266  0.3119 -0.1068
    1W        W41283  27.367  21.347   1.770  0.1357  0.0570 -0.2546
    1W        W41284  14.422   6.079   0.788  0.2099 -0.0373  0.1195
    1W        W41285   8.232  18.559   6.730  0.0749 -0.1768  0.1708
    1W        W41286  27.349  10.067   0.597  0.1917 -0.2791  0.0958
    1W        W41287  15.741  28.483   8.114  0.2208 -0.0145 -0.0680
    1W        W41288  13.702  29.951   2.008  0.3789 -0.3016 -0.1986
    1W        W41289  12.379  15.640   7.549 -0.1262  0.1373 -0.0347
    1W        W41290  18.713  25.098   6.758  0.2770 -0.1077  0.1388
    1W        W41291   1.602   3.251   1.114  0.0485 -0.1375 -0.0109
    1W        W41292   7.790   2.152   7.593  0.0990 -0.0190  0.0903
    1W        W41293  12.889   2.481   2.604 -0.3675 -0.1121 -0.2970
    1W        W41294  10.805  14.194   0.622  0.1341  0.1740 -0.0097
    1W        W41295   6.045   4.700   7.597  0.4612 -0.0190  0.2733
    1W        W41296   8.458   8.632   8.249 -0.1019  0.1505  0.2707
    1W        W41297   5.828  26.965   7.335  0.0722  0.0487  0.1202
    1W        W41298  27.481  25.484   7.589  0.1440  0.0374 -0.1439
    1W        W41299  19.085  23.837   1.011 -0.2116 -0.1580  0.0547
    1W        W41300   1.560  18.093   1.998  0.0245  0.1080  0.1767
    1W        W41301  12.051   8.637   6.997 -0.0659  0.0405 -0.1750
    1W        W41302   6.999  12.374   1.871 -0.1073  0.0528 -0.5186
    1W        W41303  27.062  15.232   8.661 -0.3494 -0.3527  0.1541
    1W        W41304  25.182  19.984   8.197  0.0756  0.1031 -0.2090
    1W        W41305  28.013  29.893   0.236 -0.2356  0.1214  0.0432
    1W        W41306   7.837  15.809   6.590  0.0339  0.2029  0.2040
    1W        W41307  10.718  24.965   8.285 -0.3049  0.1204 -0.1719
    1W        W41308  29.525  30.200   3.639  0.1076 -0.4599  0.2559
    1W        W41309  16.209   5.110   8.125  0.1233  0.1732  0.0626
    1W        W41310   3.841  15.406   0.376  0.0632  0.2518  0.1562
    1W        W41311  25.607  19.873   9.088 -0.0234 -0.1296 -0.2753
    1W        W41312  27.807  14.119   0.704 -0.1414  0.0339 -0.0647
    1W        W41313  20.166  11.084   0.859  0.1458 -0.1432  0.1266
    1W        W41314  19.957  30.175   0.001  0.0296 -0.2081 -0.1405
    1W        W41315   4.729  19.457   7.905  0.2664 -0.1413  0.1018
    1W        W41316   2.447  23.811   1.774 -0.0684 -0.2048  0.2017
    1W        W41317  15.373  12.733   0.429 -0.1828 -0.1328 -0.0362
    1W        W41318  26.393  15.713   8.238  0.3842  0.2123  0.0323
    1W        W41319   9.612  27.233   7.908 -0.0881 -0.1713  0.1083
    1W        W41320  21.524  25.974   0.793 -0.1920 -0.0940  0.1061
    1W        W41321  16.090   4.543   7.468  0.0920 -0.3007  0.1218
    1W        W41322  21.440   9.544   6.635 -0.0445  0.0011  0.2612
    1W        W41323  15.684  19.014   6.649 -0.0098  0.3426  0.0708
    1W        W41324  16.660  10.561   7.971 -0.0872 -0.2610  0.1267
    1W        W41325  22.542  29.951   8.814  0.2893  0.1301  0.0281
    1W        W41326  10.206   1.204   8.234  0.0254  0.3950 -0.0496
    1W        W41327  14.992  10.819   7.718 -0.1091  0.1054 -0.2229
    1W        W41328   4.859  22.496   1.249  0.1181  0.1190  0.2616
    1W        W41329  19.404   3.937   1.868  0.2155  0.0125  0.1308
    1W        W41330  17.162   9.974   1.798  0.1081  0.4500  0.0340
    1W        W41331  12.492   8.310   1.176  0.0712 -0.3367  0.0157
    1W        W41332  29.578  25.332   6.487  0.2634 -0.1455  0.0436
    1W        W41333  15.208  21.496   7.228  0.3553  0.3290 -0.1170
    1W        W41334  21.601   6.588   7.481  0.1782  0.0314 -0.1358
    1W        W41335  17.389  24.143   2.031 -0.0469 -0.2214 -0.2084
    1W        W41336  12.416   3.539   1.254  0.1678 -0.0987  0.1938
    1W        W41337  13.076   4.520   0.098  0.1384 -0.2359  0.0319
    1W        W41338  26.424   3.316   7.115 -0.3293  0.0011 -0.3326
    1W        W41339   4.325  18.178   1.996 -0.3448  0.1173 -0.1207
    1W        W41340   7.957   0.804   2.230 -0.1511 -0.2061  0.1312
    1W        W41341   0.273   9.599   0.091 -0.0852 -0.0000  0.2365
    1W        W41342  27.181  22.423   0.951  0.0002 -0.1970 -0.1270
    1W        W41343   9.646  13.224   8.985  0.3902 -0.1614  0.2837
    1W        W41344  25.464  13.960   0.308  0.0219  0.0037  0.2221
    1W        W41345  15.141  10.914   0.964  0.1027  0.1839 -0.1742
    1W        W41346   8.067  20.898   6.496  0.0909 -0.3891 -0.2484
    1W        W41347  24.205   2.600   0.055 -0.0079 -0.0446  0.0712
    1W        W41348  13.028   6.014   8.127 -0.0897  0.1825 -0.0793
    1W        W41349   9.027  23.495   8.297  0.0050 -0.0991  0.0727
    1W        W41350  17.469  15.510   1.382  0.0779  0.2144 -0.0471
    1W        W41351   8.668  24.006   0.762 -0.2213 -0.0285  0.0171
    1W        W41352   1.339  13.400   8.966  0.1438  0.0805  0.0959
    1W        W41353  22.263  15.709   2.459  0.0945  0.0012 -0.1782
    1W        W41354   4.717  13.997   8.320 -0.3018 -0.1465 -0.0353
    1W        W41355  29.954  10.122   1.855  0.1250 -0.0901 -0.1113
    1W        W41356   2.662  22.526   1.525 -0.0451  0.3721 -0.2632
    1W        W41357  21.101  11.294   1.175  0.3173 -0.0881  0.0682
    1W        W41358   7.625   0.481   3.308  0.0946  0.4627  0.1647
    1W        W41359  11.670  18.269   6.514 -0.1325 -0.2863 -0.0309
    1W        W41360   6.008  15.330   0.396 -0.5109  0.1530 -0.0585
    1W        W41361   0.245  16.297   6.827  0.1300 -0.0512 -0.2144
    1W        W41362   6.258  14.018   0.964 -0.0761  0.0314  0.1184
    1W        W41363   7.259   9.935   1.986 -0.3523  0.2317 -0.0393
    1W        W41364  23.190  10.249   5.697 -0.2611 -0.4058  0.1650
    1W        W41365  12.145  19.892   8.742 -0.0510  0.0325  0.0709
    1W        W41366   2.185  29.265   3.719 -0.2722 -0.0379  0.0225
    1W        W41367  15.041  24.855   7.076  0.0426  0.0324 -0.1800
    1W        W41368  25.946   2.115   0.892  0.1737 -0.0581 -0.3148
    1W        W41369  26.010   0.151   2.950  0.0258 -0.1240  0.0264
    1W        W41370  21.973   2.603   1.676  0.1550  0.0612 -0.0869
    1W        W41371  18.991   4.123   7.539  0.0186  0.0249 -0.0798
    1W        W41372  12.688  17.153   6.283 -0.2762  0.1223  0.0495
    1W        W41373  28.563   7.936   6.893 -0.1258 -0.2014 -0.0934
    1W        W41374   5.299  17.520   7.320  0.0015 -0.2010  0.0142
    1W        W41375  24.436   1.002   0.634  0.2121 -0.2168  0.0551
    1W        W41376   5.589   1.701   3.998  0.0038  0.0021 -0.1976
    1W        W41377  13.454  27.140   7.662  0.0468 -0.0577 -0.1193
    1W        W41378  27.569  23.359   7.273  0.0758  0.3016  0.0549
    1W        W41379  27.531   7.280   6.598  0.0217  0.0758  0.2048
    1W        W41380   5.496  13.013   2.304 -0.1751  0.2794 -0.0177
    1W        W41381  13.318   9.871   8.515 -0.1578 -0.1799  0.0390
    1W        W41382   9.051   3.846   6.966 -0.1354  0.1553 -0.0282
    1W        W41383   0.078  29.890   0.134  0.0348  0.2855  0.2656
    1W        W41384   6.492   0.744   0.559  0.0506 -0.1362 -0.2149
    1W        W41385  24.153   6.692   8.542 -0.0199  0.2618  0.0185
    1W        W41386   5.808  26.632   0.138 -0.3287  0.1496 -0.1859
    1W        W41387  25.330  10.873   5.822  0.0226  0.0487  0.0019
    1W        W41388  22.798   5.708   2.630  0.2384 -0.0338 -0.0974
    1W        W41389  26.923  11.329   8.644 -0.1310 -0.2370 -0.4675
    1W        W41390   0.423  20.655   0.355 -0.1581 -0.4162  0.1399
    1W        W41391   2.245   0.446   2.275 -0.1779 -0.5089  0.0477
    1W        W41392   9.994  19.214   6.199 -0.4529  0.1115  0.1152
    1W        W41393   0.686   0.070   2.640  0.2994  0.2836 -0.1461
    1W        W41394   8.701   5.102   3.269  0.2860  0.1647  0.0294
    1W        W41395  25.842  12.609   8.991  0.2152  0.2275 -0.1192
    1W        W41396  11.922  24.871   7.270 -0.2476  0.2296  0.0789
    1W        W41397  18.437  28.867   8.640  0.1547  0.0933  0.1428
    1W        W41398   5.355  16.515   8.474  0.3326  0.0521  0.0924
    1W        W41399   8.104   6.991   7.104 -0.0312 -0.3707  0.3360
    1W        W41400  22.845   6.289   2.623  0.4418 -0.0495 -0.1284
    1W        W41401  22.196  30.187   2.001  0.0809  0.0492  0.2425
    1W        W41402  12.619   4.020   7.270 -0.1465 -0.1162 -0.3134
    1W        W41403   2.934   2.118   2.725 -0.1816  0.2494  0.0586
    1W        W41404   9.695  26.769   7.547  0.2606 -0.0616  0.1992
    1W        W41405   7.968  22.691   0.936 -0.0531  0.0679  0.2966
    1W        W41406  27.019   7.266   2.809  0.1676 -0.2429  0.1291
    1W        W41407  10.673   3.263   1.401  0.1763 -0.1638  0.3541
    1W        W41408  15.932  11.299   1.089  0.2501  0.3655 -0.4635
    1W        W41409  12.541   6.102   8.350 -0.2647 -0.1003  0.2727
    1W        W41410   5.635   8.388   8.356 -0.2741 -0.0710 -0.1589
    1W        W41411  27.729  27.268   0.705 -0.0097  0.0089 -0.0961
    1W        W41412  13.370   4.049   2.129  0.2239  0.1666  0.0029
    1W        W41413  22.853   8.395   7.813  0.2305 -0.0950 -0.2413
    1W        W41414   8.511  27.130   0.294 -0.0481  0.0517 -0.3854
    1W        W41415  11.344  11.168   1.670  0.1797  0.4074  0.0576
    1W        W41416   2.102  27.353   8.990 -0.1141 -0.0253 -0.1731
    1W        W41417  28.081  11.906   7.886 -0.1655  0.2136 -0.0269
    1W        W41418   7.832  15.131   2.274  0.0568  0.1199 -0.1961
    1W        W41419  16.922   1.944   7.968 -0.1251 -0.0536 -0.0638
    1W        W41420  28.224   3.959   9.166  0.1014 -0.0325 -0.0275
    1W        W41421   2.681   3.965   3.407 -0.1478 -0.0361 -0.3209
    1W        W41422  26.137   5.317   0.768 -0.0593  0.0134 -0.0695
    1W        W41423  12.457   5.886   7.549 -0.1632  0.1796  0.0229
    1W        W41424  12.260  26.159   7.452 -0.1064 -0.0241  0.1366
    1W        W41425  23.449   5.977   6.988  0.1481  0.1358 -0.2263
    1W        W41426  21.892  25.456   2.221 -0.0872  0.1441  0.2287
    1W        W41427   7.853  16.825   1.776 -0.0866  0.0925  0.0514
    1W        W41428  21.344  30.207   2.016 -0.0081  0.1250 -0.0737
    1W        W41429  27.183  22.865   6.938 -0.3793 -0.2341  0.1452
    1W        W41430  10.720   3.532   9.210 -0.2508  0.0994  0.2954
    1W        W41431   9.987  29.043   7.643  0.1888 -0.1438  0.0442
    1W        W41432   5.595   0.232   8.093  0.2195 -0.1928 -0.2292
    1W        W41433  19.947  14.144   1.547  0.0811 -0.2203 -0.2383
    1W        W41434  13.487  28.457   2.712  0.0686 -0.1837 -0.0895
    1W        W41435  17.178  20.485   6.175 -0.2784 -0.1906  0.4412
    1W        W41436  25.033   5.844   6.708  0.1812  0.3800  0.3583
    1W        W41437   3.606  22.366   7.521 -0.1217 -0.2545 -0.0224
    1W        W41438  27.496  14.634   1.189 -0.1001 -0.0907 -0.2959
    1W        W41439   5.787   0.874   9.051 -0.0605  0.0513 -0.0610
    1W        W41440   1.696  14.186   0.638  0.1363 -0.1693 -0.1596
    1W        W41441   8.667   3.358   0.109 -0.1625  0.0964 -0.0082
    1W        W41442  17.749   3.557   8.892 -0.1122 -0.2781 -0.1652
    1W        W41443  10.779   2.010   7.511  0.0076 -0.0571  0.0894
    1W        W41444  14.617  10.132   1.845 -0.1662  0.1383 -0.0131
    1W        W41445  10.224   9.546   2.101  0.1405 -0.1123 -0.0693
    1W        W41446  21.020  20.362   9.160  0.0149 -0.1121  0.0390
    1W        W41447  15.996   8.027   7.836  0.0334  0.2385  0.1179
    1W        W41448  12.701  22.117   8.035 -0.0538  0.2142 -0.0990
    1W        W41449   9.144  25.951   0.637 -0.1945  0.1724 -0.0147
    1W        W41450  20.257   2.048   8.214  0.1674 -0.2161 -0.0970
    1W        W41451  12.555  25.195   7.587  0.0646  0.0592  0.1788
    1W        W41452  16.858  20.745   0.441  0.0844  0.0080  0.0690
    1W        W41453   3.960  15.759   9.218 -0.1587 -0.1079  0.0121
    1W        W41454  15.655  20.565   1.195 -0.2240 -0.0018  0.1521
    1W        W41455   6.328  27.992   0.606 -0.0942  0.0224 -0.1880
    1W        W41456  27.776  27.773   9.139 -0.1950  0.2101 -0.2863
    1W        W41457  23.693  11.923   1.319  0.0811 -0.0793 -0.0023
    1W        W41458   4.354  22.309   7.005  0.0422 -0.0101  0.1232
    1W        W41459   5.019  17.981   6.544 -0.1514 -0.1981 -0.0960
    1W        W41460  11.884   3.116   0.406 -0.2158 -0.2349 -0.1846
    1W        W41461  19.542   1.847   7.482 -0.2146  0.0423 -0.0397
    1W        W41462  20.186   4.670   7.314 -0.1466  0.3038 -0.1398
    1W        W41463  19.572   9.559   6.798 -0.0622 -0.2239 -0.0754
    1W        W41464  17.356   6.077   7.757 -0.1152 -0.2748 -0.1557
    1W        W41465   5.831  15.841   0.209  0.4829 -0.1178 -0.0357
    1W        W41466  25.168  28.166   6.614  0.0078 -0.1440 -0.0366
    1W        W41467  15.580  25.143   7.511 -0.2292 -0.0775 -0.2578
    1W        W41468  19.816  10.364   2.926 -0.2146 -0.1429 -0.1261
    1W        W41469  23.905  11.748   1.820  0.0480 -0.2644 -0.1049
    1W        W41470   1.641  22.445   7.069  0.2551  0.0443  0.0293
    1W        W41471  18.979  14.552   6.067  0.1694 -0.3188 -0.0015
    1W        W41472   2.542  18.909   1.150  0.0115 -0.0025  0.0798
    1W        W41473  23.601  21.357   0.755  0.1116  0.0567  0.1740
    1W        W41474  12.257  22.328   8.875  0.0895  0.3070 -0.1884
    1W        W41475  20.617  14.181   0.322 -0.1721 -0.0256  0.1604
    1W        W41476  14.236  29.496   2.970 -0.1328 -0.0684  0.1479
    1W        W41477  28.548  23.664   6.334  0.1965 -0.0290  0.1990
    1W        W41478  27.277  16.198   6.429 -0.1426 -0.2861  0.0352
    1W        W41479   1.334   2.053   1.193  0.1012  0.0903  0.2933
    1W        W41480   9.692  16.705   2.753  0.2918 -0.3647 -0.1164
    1W        W41481  16.048  26.122   1.140  0.1380 -0.0064  0.2287
    1W        W41482  20.022  26.206   7.370 -0.1154  0.1095 -0.1972
    1W        W41483   4.869   2.077   3.000  0.2383 -0.0498  0.0092
    1W        W41484  15.002   1.102   7.678 -0.1904  0.2572 -0.1712
    1W        W41485  15.173  29.183   7.927  0.0857 -0.0945  0.1121
    1W        W41486  12.671   0.268   7.336 -0.0009 -0.1752  0.1202
    1W        W41487   4.939  24.375   6.987 -0.2586  0.2802 -0.2582
    1W        W41488   4.127  21.211   8.282  0.3472  0.0160  0.0912
    1W        W41489  12.438  13.189   2.601  0.0677 -0.1414  0.2130
    1W        W41490   0.307  27.294   8.428 -0.1985  0.2614 -0.0886
    1W        W41491  23.666   0.625   7.452  0.1098 -0.0825 -0.1962
    1W        W41492  25.687   8.301   1.941 -0.1803 -0.0502  0.0258
    1W        W41493  23.388  28.966   8.574  0.1748  0.2658  0.0260
    1W        W41494  20.582  19.570   8.899 -0.3434 -0.3716 -0.3120
    1W        W41495   9.254  18.710   6.632 -0.2680 -0.0106  0.0665
    1W        W41496   1.025  14.493   8.523  0.0274  0.0660  0.0853
    1W        W41497  13.080  12.720   0.916 -0.3525 -0.0797  0.0562
    1W        W41498  17.226  18.143   7.724 -0.3124  0.2616 -0.0588
    1W        W41499  11.694  21.225   8.180 -0.1903  0.1517  0.1757
    1W        W41500   3.672   8.780   7.691  0.1442 -0.2731  0.1647
    1W        W41501  18.160   9.900   8.318  0.1441 -0.1449 -0.2064
    1W        W41502  17.771  29.282   6.751  0.1087 -0.0599 -0.1328
    1W        W41503  20.684  29.812   3.324 -0.3220  0.0126  0.0351
    1W        W41504  19.688  11.532   6.244 -0.1922 -0.0698 -0.2175
    1W        W41505  10.115  14.836   0.599  0.3281 -0.0759  0.0041
    1W        W41506  30.287  23.527   0.030  0.0472  0.0501 -0.2178
    1W        W41507   3.444  14.216   6.467  0.2419  0.0624  0.1058
    1W        W41508  29.529  23.204   8.578 -0.0794 -0.2258 -0.0289
    1W        W41509  27.394  25.439   8.523  0.2104  0.0167 -0.1919
    1W        W41510  23.696  11.232   0.180 -0.0983  0.1709  0.1508
    1W        W41511  23.426  25.115   6.887  0.1425 -0.2182  0.1125
    1W        W41512  16.225  12.982   7.016 -0.1138  0.1415 -0.4155
    1W        W41513   1.540  16.092   6.869 -0.5230  0.1827  0.1752
    1W        W41514   5.954  20.930   6.867  0.2617 -0.4465  0.0068
    1W        W41515  13.398  17.570   8.831  0.2314 -0.1255  0.0430
    1W        W41516   0.334   5.119   7.070  0.2473 -0.2367  0.5003
    1W        W41517  21.772  29.387   1.627 -0.0801 -0.3470 -0.0475
    1W        W41518   2.335  29.661   7.900  0.3137  0.1195  0.1511
    1W        W41519   4.475  25.587   8.199 -0.1073 -0.0396 -0.1920
    1W        W41520  20.980   5.186   0.888  0.0963 -0.1872 -0.1599
    1W        W41521   4.138  14.068   8.258 -0.3489  0.1331  0.2610
    1W        W41522  27.201   1.351   8.963 -0.2702 -0.0911  0.1218
    1W        W41523  10.043  27.960   1.175  0.1009 -0.0213 -0.0569
    1W        W41524   0.738  17.243   0.992 -0.0761  0.0179 -0.0689
    1W        W41525  19.811  12.653   8.167  0.1509  0.2038 -0.0169
    1W        W41526   7.802   8.390   0.902  0.0575 -0.0577  0.1174
    1W        W41527  25.381  22.129   0.295  0.4170 -0.1045 -0.0892
    1W        W41528  28.096  26.071   0.487  0.2021 -0.1904 -0.1724
    1W        W41529  17.267  26.744   7.861 -0.0183  0.1510 -0.1655
    1W        W41530  18.691   1.590   7.718  0.1538 -0.0066 -0.0017
    1W        W41531  26.015  11.362   7.173  0.1330  0.2242 -0.2748
    1W        W41532   9.975  29.772   1.796  0.1535  0.1838 -0.0728
    1W        W41533  29.680   1.152   3.802 -0.3173  0.1117 -0.1948
    1W        W41534   5.218  28.024   6.737  0.0815  0.0374  0.1796
    1W        W41535  13.779  20.107   6.309  0.2392 -0.1640 -0.3007
    1W        W41536   8.948  20.181   7.400 -0.1790 -0.1622 -0.2734
    1W        W41537  25.990  13.778   1.293 -0.0090  0.2147  0.0730
    1W        W41538   9.395   5.744   2.785  0.1453 -0.2277 -0.1421
    1W        W41539  29.049   0.574   3.522  0.0055 -0.2812  0.3187
    1W        W41540  30.083   5.769   6.617  0.0170 -0.2759 -0.1780
    1W        W41541   4.043   5.252   2.412 -0.3010 -0.2836  0.1169
    1W        W41542  25.884   4.272   0.913  0.0862 -0.1336 -0.0938
    1W        W41543  28.061  27.381   8.954  0.1073  0.1596 -0.2625
    1W        W41544  17.442  18.998   0.019 -0.0866  0.1522 -0.0024
    1W        W41545  28.640  24.219   8.255  0.1961  0.0217 -0.1896
    1W        W41546   5.651  10.243   8.798 -0.3410 -0.3374 -0.0167
    1W        W41547  25.383   5.480   0.258 -0.0778  0.1999  0.1614
    1W        W41548  18.483  25.096   1.393 -0.0850  0.2425  0.0667
    1W        W41549   3.143  14.478   1.973 -0.2870  0.1018 -0.0580
    1W        W41550   1.860   8.127   7.334  0.1638 -0.0925 -0.0251
    1W        W41551  10.746  21.235   8.169 -0.1021  0.2054  0.1306
    1W        W41552   5.512   2.326   8.521 -0.0441 -0.0873 -0.0989
    1W        W41553   4.462   8.178   1.389  0.0773 -0.1983  0.2276
    1W        W41554  24.907  19.306   6.820 -0.1333  0.0270 -0.0484
    1W        W41555  23.945   2.872   1.634 -0.0643  0.4538  0.0330
    1W        W41556  24.210  18.898   6.935  0.2926 -0.1103  0.3188
    1W        W41557  10.045   5.096   0.952 -0.1421 -0.0855  0.2328
    1W        W41558  27.302  30.172   3.101  0.0651  0.2710 -0.1797
    1W        W41559  20.603   8.728   2.559  0.0442 -0.0636  0.1880
    1W        W41560  23.274  26.764   6.798  0.0001 -0.0941  0.0837
    1W        W41561   3.019   8.637   8.995  0.4275  0.0979 -0.2329
    1W        W41562   0.262  29.640   2.659  0.4275 -0.1363  0.0330
    1W        W41563  25.313  23.251   0.068 -0.1133  0.0440  0.1534
    1W        W41564  15.727   2.993   7.735 -0.2107  0.3586 -0.4020
    1W        W41565  10.021  27.311   0.775  0.1807 -0.3153 -0.4495
    1W        W41566  14.008  11.615   0.875  0.1403 -0.0005  0.1886
    1W        W41567  29.989  12.515   6.819 -0.2244 -0.0799  0.5116
    1W        W41568  18.915  12.419   1.759 -0.2072  0.1059  0.0856
    1W        W41569  29.330   2.700   8.116 -0.0072 -0.2035  0.2968
    1W        W41570  18.034   9.912   1.413 -0.0889  0.1605 -0.1734
    1W        W41571  10.631  23.998   8.328 -0.1519  0.0442 -0.1238
    1W        W41572   1.638  28.740   9.248 -0.1952  0.1479  0.0642
    1W        W41573   7.277   1.956   2.860  0.1865  0.1763  0.1980
    1W        W41574  20.346   9.614   2.031 -0.0150  0.1613 -0.1229
    1W        W41575   0.320   1.392   8.368  0.1747 -0.1654  0.0763
    1W        W41576  26.229  10.502   7.790 -0.1288 -0.1823 -0.1707
    1W        W41577   8.847  26.717   2.467  0.2358  0.2550 -0.0657
    1W        W41578   2.985  11.736   7.561 -0.2644 -0.1704 -0.0265
    1W        W41579  11.364   1.122   1.642 -0.1234 -0.1883  0.1381
    1W        W41580  29.027  14.255   6.871 -0.0032  0.0146 -0.0317
    1W        W41581   0.145  17.966   7.280 -0.1434  0.1413 -0.0407
    1W        W41582  27.071   2.735   0.031  0.0256 -0.0930  0.0585
    1W        W41583   6.407  24.610   0.773 -0.1297  0.2184  0.1191
    1W        W41584  11.379   2.357   1.151 -0.3475 -0.2223 -0.3476
    1W        W41585   5.074  12.292   8.676  0.1658 -0.0154 -0.1772
    1W        W41586   9.813  28.567   2.338  0.1863 -0.0668  0.1057
    1W        W41587  15.305  18.628   0.594  0.0541  0.0492  0.0266
    1W        W41588  25.554  11.712   0.763  0.3951  0.0715 -0.0428
    1W        W41589  14.018  21.119   8.045 -0.0159  0.3285  0.1265
    1W        W41590  19.473  23.929   6.005 -0.0599 -0.0708 -0.2087
    1W        W41591  17.549   9.081   1.513  0.1426 -0.0271 -0.4390
    1W        W41592  29.498  20.977   1.617 -0.2756 -0.0555  0.1663
    1W        W41593  17.453   5.882   7.300  0.0237  0.0784  0.1514
    1W        W41594   0.544   6.817   6.613 -0.1051 -0.1435 -0.2326
    1W        W41595  13.835  19.677   6.606 -0.2679 -0.1500 -0.4211
    1W        W41596  29.878  17.688   0.622  0.1865  0.4155  0.1739
    1W        W41597  25.324  19.522   1.688  0.0520  0.1188 -0.0637
    1W        W41598  19.057  27.982   0.056 -0.1809 -0.1108  0.0467
    1W        W41599  11.714  20.399   0.669 -0.0897 -0.0516 -0.2825
    1W        W41600  21.872   0.253   6.983 -0.2134  0.0251 -0.2518
    1W        W41601  19.566  27.192   1.966 -0.2502 -0.0236 -0.1701
    1W        W41602  22.766  12.368   0.162  0.0246  0.0574  0.0257
    1W        W41603  15.257  29.312   7.429  0.2124 -0.1146 -0.0329
    1W        W41604  11.168   8.559   1.306 -0.0717 -0.0067 -0.1092
    1W        W41605  18.136  15.519   2.622  0.0243  0.2472 -0.1226
    1W        W41606  17.007  26.087   7.049  0.4499  0.1528  0.1438
    1W        W41607  26.467   8.295   0.461 -0.0090  0.2554 -0.1508
    1W        W41608   6.238   0.541   2.576 -0.2305 -0.0521  0.0290
    1W        W41609  23.387  16.154   6.607 -0.1362  0.1489  0.1388
    1W        W41610   6.646  18.939   7.521  0.0543  0.0423 -0.0202
    1W        W41611  27.483  28.027   2.272 -0.0360  0.1612  0.0713
    1W        W41612  27.150  17.357   1.853 -0.2783  0.0189 -0.0902
    1W        W41613   8.259  29.397   7.720 -0.1867 -0.2585  0.1879
    1W        W41614  23.745  28.178   3.356 -0.1368  0.0203 -0.3883
    1W        W41615   5.335  12.229   7.283 -0.2923 -0.1514 -0.2106
    1W        W41616  25.597   9.631   0.664 -0.1482 -0.1459 -0.2408
    1W        W41617  28.356  21.799   1.673 -0.1104 -0.0269  0.3073
    1W        W41618  17.691   9.624   0.883 -0.0930 -0.0976  0.1871
    1W        W41619  15.774   3.853   8.710 -0.2072  0.2495 -0.0403
    1W        W41620  12.555  15.416   2.731 -0.1516 -0.0504 -0.0242
    1W        W41621   9.682  11.180   2.897 -0.2193  0.1343 -0.1895
    1W        W41622   2.525  14.415   7.344  0.0293 -0.1871  0.2002
    1W        W41623   7.334   8.391   0.692 -0.1023  0.1963 -0.3253
    1W        W41624  13.728  19.714   0.409 -0.2611 -0.4800 -0.1896
    1W        W41625   4.031  23.056   2.152  0.1068 -0.1497 -0.1073
    1W        W41626  12.064  23.814   8.489  0.2008  0.0274 -0.1702
    1W        W41627  28.794   0.399   7.125 -0.0197 -0.0865  0.1932
    1W        W41628   6.164   3.214   2.257  0.1637  0.0059  0.1218
    1W        W41629  17.691   0.928   1.791  0.1277 -0.1180 -0.0651
    1W        W41630  12.910   9.853   2.762 -0.0418  0.2154  0.2474
    1W        W41631  12.803  16.969   0.163  0.1193  0.4695 -0.2162
    1W        W41632  18.699   6.436   1.729 -0.1224 -0.4216  0.0593
    1W        W41633  28.572   8.365   2.930  0.0183  0.2455 -0.1610
    1W        W41634  10.028  29.921   6.128 -0.0997  0.0364 -0.0210
    1W        W41635   4.707  13.755   7.001  0.1463  0.0743 -0.1681
    1W        W41636  22.909  29.799   8.429 -0.2505 -0.2534 -0.0661
    1W        W41637   6.560  16.975   6.775  0.5549  0.1017  0.1208
    1W        W41638  16.501  25.422   0.582 -0.0932 -0.2587  0.1830
    1W        W41639  21.345  23.975   0.686  0.0926  0.0957 -0.0193
    1W        W41640  22.014  26.657   0.009  0.0129  0.1654 -0.2971
    1W        W41641   6.341   2.225   8.102  0.0004 -0.2336 -0.1012
    1W        W41642  16.035   3.717   6.726 -0.0808 -0.0914 -0.0901
    1W        W41643  23.798  24.927   7.786 -0.1607  0.2217  0.3191
    1W        W41644  14.059  23.353   1.290 -0.1779 -0.1582  0.2882
    1W        W41645  24.263  24.260   7.990 -0.1840  0.0766 -0.3419
    1W        W41646  10.956   7.529   8.794  0.1361 -0.2902 -0.0065
    1W        W41647   1.354  17.409   9.029  0.0322  0.0538  0.1600
    1W        W41648  26.454  25.136   1.658 -0.0678 -0.1698 -0.3555
    1W        W41649   2.459   5.224   1.064 -0.0266  0.1692 -0.1108
    1W        W41650  17.199   5.914   1.681 -0.0567 -0.2636 -0.1049
    1W        W41651  25.172   1.729   1.426  0.1026  0.0826  0.0123
    1W        W41652   0.504  19.443   9.179  0.0176 -0.4352 -0.0295
    1W        W41653   5.083  19.447   8.341  0.2767  0.0382 -0.0557
    1W        W41654  10.961  24.328   1.527  0.0369  0.0893  0.0254
    1W        W41655  13.084  26.748   7.639 -0.0623 -0.0701  0.0643
    1W        W41656  14.714  25.697   8.965 -0.0359 -0.1855 -0.3250
    1W        W41657  12.564  14.914   2.572  0.2378  0.2915  0.0860
    1W        W41658  13.595  13.700   7.982 -0.3643 -0.0223  0.2244
    1W        W41659  26.133   2.064   6.953 -0.0481 -0.3114 -0.1710
    1W        W41660   2.375  10.933   1.283 -0.0593 -0.1850  0.0374
    1W        W41661  13.484  28.513   8.004  0.0054 -0.3724 -0.0177
    1W        W41662   3.625  24.119   0.336  0.1882 -0.2999 -0.0426
    1W        W41663  25.713   5.303   2.366  0.1468 -0.1937  0.0266
    1W        W41664   1.103  12.813   6.954 -0.1047 -0.0337  0.0295
    1W        W41665   2.253  19.521   0.218  0.3055  0.1448  0.0726
    1W        W41666   9.519  29.258   8.515 -0.1055  0.0498 -0.1787
    1W        W41667   3.164   0.703   1.632 -0.1822  0.2451  0.3249
    1W        W41668  20.801  19.719   2.300 -0.2364 -0.1453  0.0857
    1W        W41669  17.088  26.705   0.043  0.1615 -0.1258  0.3978
    1W        W41670   2.056  10.630   1.587  0.2014  0.0635 -0.2260
    1W        W41671  27.859  21.246   1.861  0.1445 -0.1072  0.2245
    1W        W41672  21.862  28.268   2.804  0.0038 -0.1177  0.0417
    1W        W41673  11.546  19.259   7.325 -0.0811 -0.1800  0.2172
    1W        W41674  22.670   1.491   3.238 -0.3317  0.1340  0.2568
    1W        W41675   8.676  10.887   7.942 -0.1131 -0.2713  0.2859
    1W        W41676  22.695  29.831   2.931  0.0745 -0.2498  0.2249
    1W        W41677   4.693   4.175   0.447 -0.0995  0.3316 -0.2090
    1W        W41678   8.632   2.453   3.454 -0.0703  0.0856 -0.0054
    1W        W41679  30.168  11.501   1.595  0.0272 -0.0448 -0.0761
    1W        W41680   4.203   3.711   9.147  0.1056  0.3389 -0.0476
    1W        W41681  14.009  24.938   7.339 -0.0410 -0.0458 -0.2986
    1W        W41682  25.708   2.616   8.614 -0.0388 -0.0349 -0.2297
    1W        W41683  25.306  25.159   7.946  0.0697 -0.0621 -0.1449
    1W        W41684  22.815  12.846   7.059  0.0817  0.3830 -0.0944
    1W        W41685  18.122  16.849   1.263 -0.1306  0.0771 -0.3947
    1W        W41686  16.768  28.083   2.628  0.0488  0.0871 -0.0430
    1W        W41687   1.196   6.531   9.174 -0.3490  0.0109  0.0148
    1W        W41688  21.025   8.358   0.469 -0.2228  0.0785  0.2521
    1W        W41689   6.456   3.013   1.248 -0.0627  0.0451 -0.1000
    1W        W41690  24.504  23.385   7.511  0.2787  0.2447 -0.0631
    1W        W41691  11.557   1.709   0.871 -0.1278  0.0589 -0.0157
    1W        W41692  11.722  20.236   1.458  0.0738  0.0518 -0.3236
    1W        W41693  20.762   2.051   6.691  0.1638 -0.0818  0.0433
    1W        W41694  28.595   9.940   7.950  0.0671  0.0426 -0.1018
    1W        W41695  27.677  21.752   1.626 -0.1536 -0.0236 -0.0767
    1W        W41696  26.409  11.887   1.254 -0.2461  0.2597 -0.0273
    1W        W41697  22.652  11.465   0.211  0.4007  0.2851 -0.3015
    1W        W41698   6.033  13.160   0.584 -0.2190 -0.3043  0.0113
    1W        W41699   2.684  14.785   6.750 -0.2196 -0.0564  0.3093
    1W        W41700   9.121  24.938   1.775  0.1267 -0.1533 -0.0157
    1W        W41701   3.357   2.312   3.082 -0.3417 -0.3446  0.0324
    1W        W41702  12.458  22.809   7.662  0.4388 -0.3154 -0.0416
    1W        W41703  23.615  16.810   0.283  0.0207 -0.0705  0.2800
    1W        W41704  12.678  11.924   2.580 -0.1396 -0.1417  0.0144
    1W        W41705  21.577  27.748   9.004 -0.1602  0.0214 -0.0847
    1W        W41706   2.671  24.861   6.833  0.1598 -0.0657 -0.3560
    1W        W41707  21.873  17.128   8.433 -0.0032  0.0398 -0.1508
    1W        W41708   8.414   4.554   0.879 -0.0975  0.0927 -0.0442
    1W        W41709   8.214  24.239   8.316  0.2904 -0.1264  0.2204
    1W        W41710  26.225  16.811   7.671 -0.2796 -0.3636  0.1409
    1W        W41711  21.887  21.700   1.557  0.1326 -0.1352 -0.3209
    1W        W41712  17.967  23.710   6.594 -0.1859  0.0691  0.0663
    1W        W41713  20.489  23.994   1.299  0.2325 -0.0974  0.0399
    1W        W41714  18.379  19.707   6.981  0.0860  0.2115 -0.2211
    1W        W41715   9.620  29.626   2.689  0.2306  0.0477 -0.2024
    1W        W41716   4.702  15.247   7.437  0.1602  0.0246 -0.3195
    1W        W41717   2.456   5.442   7.747 -0.1784  0.0006  0.1457
    1W        W41718   7.748  11.202   7.595 -0.1616 -0.0825 -0.0930
    1W        W41719   3.198  13.955   6.119  0.0683  0.2366 -0.1149
    1W        W41720  29.590  19.449   7.637  0.1401 -0.0649  0.2697
    1W        W41721  16.232   8.731   7.390 -0.1049 -0.1732  0.0408
    1W        W41722   9.128   1.666   7.467  0.1279 -0.1394  0.0263
    1W        W41723  29.528  25.018   2.844  0.0439 -0.0224 -0.1713
    1W        W41724  10.623  11.811   0.779 -0.1640  0.0519 -0.1986
    1W        W41725  19.064   7.911   0.165 -0.0019  0.2118  0.0279
    1W        W41726  29.675   0.107   1.038 -0.0167 -0.0391 -0.0460
    1W        W41727  10.295   6.978   7.594  0.2604  0.0599  0.5075
    1W        W41728   2.347  15.408   9.174  0.0272 -0.0534 -0.0755
    1W        W41729  12.854  20.307   1.321 -0.2141  0.2348  0.2114
    1W        W41730   2.626  15.788   6.625  0.0292  0.0102  0.0552
    1W        W41731  26.347  19.217   6.537  0.1866 -0.0578  0.0046
    1W        W41732   2.562  17.886   7.076 -0.1912  0.0514  0.1476
    1W        W41733  21.960   4.601   7.324 -0.0393 -0.0355 -0.2541
    1W        W41734   0.635  23.988   0.225 -0.0319 -0.1058  0.0310
    1W        W41735  11.039  13.730   0.462 -0.2839  0.1458 -0.0941
    1W        W41736   5.141  28.248   9.147  0.1174 -0.1235  0.0548
    1W        W41737  14.553  21.605   1.527 -0.1769 -0.4218  0.2804
    1W        W41738   3.223  15.975   7.372 -0.1651  0.0314  0.1566
    1W        W41739  10.226  22.948   6.239 -0.0147  0.0464 -0.0901
    1W        W41740  12.929  23.106   2.235 -0.1261  0.0031  0.2741
    1W        W41741  23.052  11.765   5.643  0.3706 -0.3839 -0.0870
    1W        W41742  12.826  11.921   8.788 -0.0960 -0.0530 -0.1540
    1W        W41743  14.313   5.830   8.638 -0.0302  0.0523 -0.0524
    1W        W41744  23.105   8.967   1.955 -0.0821 -0.2511 -0.1515
    1W        W41745   2.002   6.762   7.648  0.1923  0.0037  0.4339
    1W        W41746  15.321   4.870   8.600  0.0810  0.1877  0.0981
    1W        W41747  27.542  24.283   7.555 -0.2724  0.0481 -0.3698
    1W        W41748  23.488  24.534   0.671 -0.1801  0.2022  0.2192
    1W        W41749  24.812  26.206   8.678  0.0659 -0.1813  0.0341
    1W        W41750  14.926  13.403   1.209 -0.0130 -0.3723 -0.0706
    1W        W41751  17.457  22.911   6.487 -0.1038  0.1473 -0.0192
    1W        W41752  14.842   3.849   1.152 -0.1715 -0.0924 -0.2731
    1W        W41753   9.507   9.152   8.645  0.0538 -0.1943  0.1348
    1W        W41754   3.074  13.910   0.709  0.1472 -0.2346 -0.1962
    1W        W41755  24.522  27.341   1.927  0.5372  0.1286  0.0848
    1W        W41756   2.696   0.967   2.988  0.0494 -0.4914 -0.1196
    1W        W41757   1.542  13.818   1.542  0.1662  0.1171  0.3021
    1W        W41758  28.576   0.342   7.544  0.0721  0.1707  0.2689
    1W        W41759   2.399  21.209   1.010 -0.2429  0.0624 -0.0176
    1W        W41760   3.754  18.482   7.346 -0.1961 -0.1308 -0.2284
    1W        W41761   0.874   4.962   7.965  0.1164 -0.1309  0.2114
    1W        W41762  12.367   6.934   6.989  0.1366  0.1050 -0.0702
    1W        W41763  26.868   3.802   0.417 -0.3746 -0.2311 -0.0569
    1W        W41764  16.931  10.328   8.357 -0.1486  0.1838 -0.3491
    1W        W41765  10.325   2.244   7.760 -0.0887  0.1251 -0.2119
    1W        W41766   4.028  13.448   2.061  0.2762 -0.2542 -0.1033
    1W        W41767   0.391  16.240   0.267  0.0455 -0.1152  0.0136
    1W        W41768  21.417  29.060   0.692 -0.2052 -0.0732 -0.1934
    1W        W41769   9.226  30.021   1.319 -0.0105 -0.0072  0.0034
    1W        W41770   2.590  28.180   7.906  0.2999  0.1386  0.0239
    1W        W41771   6.064  18.698   8.735  0.1227 -0.1880  0.0643
    1W        W41772  21.706   9.293   0.904  0.3163  0.1981  0.0154
    1W        W41773  21.885   9.204   6.647 -0.1303 -0.2765 -0.3812
    1W        W41774  23.093  12.553   8.216  0.0510 -0.2939  0.1464
    1W        W41775  22.806  22.234   7.560 -0.0802  0.1965  0.1770
    1W        W41776  30.023  19.446   1.219  0.1153 -0.0936  0.1070
    1W        W41777   0.300  12.712   7.346 -0.1481 -0.0386  0.2029
    1W        W41778   0.476  23.523   0.087 -0.2273 -0.1835  0.0398
    1W        W41779  18.523  27.799   7.561  0.0857 -0.1591 -0.0447
    1W        W41780  26.248  19.589   1.563 -0.0670 -0.0186 -0.2469
    1W        W41781  21.380  23.736   6.430  0.2918  0.0822  0.0435
    1W        W41782  25.285  27.117   3.051 -0.0208  0.2406 -0.1314
    1W        W41783   8.661  16.563   0.295  0.0050  0.0998 -0.0087
    1W        W41784  15.655   8.527   6.131  0.2689 -0.1979  0.0855
    1W        W41785  19.906  15.697   8.886  0.0797  0.3115  0.0928
    1W        W41786   9.618  14.926   0.945 -0.2443 -0.0809 -0.1824
    1W        W41787  20.079  19.382   1.588 -0.3306  0.2188 -0.0246
    1W        W41788   1.902   8.999   8.803 -0.2397  0.1182 -0.0439
    1W        W41789   9.393  11.543   2.072 -0.1248  0.5231  0.2738
    1W        W41790  26.289   5.087   9.086 -0.1045 -0.3141 -0.0173
    1W        W41791  12.998   8.373   8.597  0.0766 -0.3084  0.0681
    1W        W41792   4.499   5.132   2.048 -0.0432  0.3228 -0.2448
    1W        W41793  23.933   5.089   7.824 -0.4481 -0.2290  0.2239
    1W        W41794  19.910  11.498   0.740 -0.1154  0.0700  0.0363
    1W        W41795  23.723  20.254   9.224 -0.1681 -0.0281  0.0216
    1W        W41796  14.627  22.626   2.271  0.0291 -0.0001 -0.0556
    1W        W41797   7.711   6.876   1.523  0.0330 -0.0708  0.1529
    1W        W41798  24.591  22.530   1.333 -0.3777  0.0731  0.2676
    1W        W41799  14.919   8.875   1.716  0.0398 -0.1140 -0.1752
    1W        W41800  16.570  22.788   7.988  0.0872  0.3899  0.0464
    1W        W41801   6.530  13.614   6.934 -0.0931 -0.3048 -0.1555
    1W        W41802  13.600   4.332   7.418  0.1389 -0.2368  0.3592
    1W        W41803  11.408   2.435   0.617 -0.1232 -0.3062 -0.2017
    1W        W41804  24.307   8.741   8.541 -0.4738  0.4783 -0.2065
    1W        W41805  27.020   0.991   8.553 -0.1839  0.1934  0.1113
    1W        W41806  29.335   5.101   3.391  0.2677  0.1561  0.2141
    1W        W41807  26.794  22.702   9.056  0.1772 -0.2531 -0.3116
    1W        W41808  14.944   0.359   1.864  0.0841 -0.3062  0.0197
    1W        W41809  11.946  17.637   0.728 -0.1473 -0.0804 -0.0468
    1W        W41810  20.629  22.033   2.084  0.1442  0.0188  0.1196
    1W        W41811   5.097   4.478   0.591  0.3192  0.0427 -0.0544
    1W        W41812  12.951   8.518   1.193 -0.2185 -0.1500 -0.0794
    1W        W41813   4.416  25.055   7.356 -0.2415  0.1173  0.4117
    1W        W41814   7.465  28.016   0.556 -0.0307 -0.1376  0.1737
    1W        W41815  11.329  25.655   8.735  0.2066 -0.5016 -0.3898
    1W        W41816  30.201   1.363   3.052  0.0623  0.1323  0.0623
    1W        W41817  14.540  23.489   9.077 -0.2518  0.2527  0.2038
    1W        W41818  26.533  17.349   8.211  0.0027 -0.3381 -0.1531
    1W        W41819  18.033  23.371   0.147  0.0592  0.0169 -0.1342
    1W        W41820  12.299  21.880   8.320 -0.2667 -0.0081 -0.1307
    1W        W41821   8.724  17.764   2.555 -0.1830  0.0717 -0.0677
    1W        W41822  25.168  29.034   8.325  0.0801  0.0542 -0.3147
    1W        W41823  18.889  23.504   7.996  0.1649  0.1184 -0.0529
    1W        W41824   8.722  18.488   8.548 -0.2106 -0.1300 -0.4425
    1W        W41825  12.962   5.711   6.766 -0.1310 -0.0174 -0.2846
    1W        W41826  11.868  27.052   0.434 -0.0139 -0.1310 -0.1183
    1W        W41827  14.441   4.197   7.137  0.2223 -0.0188  0.0172
    1W        W41828   1.789   5.095   2.226  0.2066 -0.0463 -0.0503
    1W        W41829  18.620  10.658   2.611 -0.0214 -0.0675  0.2653
    1W        W41830  16.167   4.771   1.708  0.1676  0.2973 -0.0719
    1W        W41831  18.731  27.017   2.910 -0.0330 -0.0350 -0.1323
    1W        W41832   2.929   6.513   6.211 -0.1289  0.2737  0.0521
    1W        W41833   5.074  25.794   3.045  0.0690  0.1399 -0.0719
    1W        W41834  22.019   6.891   7.525 -0.4277 -0.1860  0.1959
    1W        W41835   3.483  29.670   3.039  0.1306  0.1072 -0.0876
    1W        W41836   3.041  21.152   6.596  0.1292  0.0570  0.0878
    1W        W41837  21.316  16.225   8.198 -0.0500  0.1446 -0.3005
    1W        W41838   6.184  15.094   6.171 -0.2971  0.4645  0.1285
    1W        W41839   4.854  28.361   3.006 -0.2057  0.1702  0.1165
    1W        W41840  22.478  17.010   8.527  0.0525 -0.1827 -0.2393
    1W        W41841  26.130   5.014   0.358 -0.2228 -0.2848 -0.2471
    1W        W41842  15.116  13.320   3.074  0.4349 -0.0833 -0.0971
    1W        W41843  17.807   4.752   6.659 -0.0238  0.2125 -0.0623
    1W        W41844  24.844   7.632   0.690  0.1010 -0.0668  0.2199
    1W        W41845  19.704  17.086   0.968  0.1350  0.2397 -0.0983
    1W        W41846   0.281   5.889   7.650 -0.0762 -0.1003  0.1444
    1W        W41847  22.633  18.147   8.910 -0.1037 -0.1449  0.0081
    1W        W41848  11.399  13.342   0.396  0.4576  0.0318 -0.6596
    1W        W41849   1.600  12.917   8.581  0.0892  0.1273  0.0380
    1W        W41850  20.757  22.051   0.641  0.1860 -0.3578 -0.1768
    1W        W41851  16.529   8.509   0.627 -0.0610  0.0441 -0.0366
    1W        W41852  16.364   5.870   5.982  0.2978  0.1796  0.0471
    1W        W41853  16.440   7.163   0.900 -0.2290 -0.0587  0.2919
    1W        W41854  11.763  14.962   1.944 -0.0799  0.0406  0.6271
    1W        W41855   9.710  20.516   0.637 -0.1569  0.1412 -0.0736
    1W        W41856  24.763  16.344   8.694 -0.2543  0.0281 -0.0550
    1W        W41857   4.403  29.470   0.023 -0.2437  0.4039  0.0896
    1W        W41858   0.712  15.819   6.294 -0.1492  0.2210  0.3638
    1W        W41859  14.977  20.430   0.218 -0.2892  0.1320 -0.1320
    1W        W41860   5.699  20.409   6.199 -0.2499  0.1248 -0.1400
    1W        W41861  18.500  14.071   1.667  0.0244 -0.4918  0.1418
    1W        W41862   1.152   9.875   7.418 -0.0254  0.1270  0.2701
    1W        W41863  15.654  13.708   2.383  0.0043  0.0725 -0.1326
    1W        W41864  14.931   2.402   7.627  0.0381  0.0050 -0.1405
    1W        W41865  21.426  28.077   1.638  0.2958  0.1697 -0.1024
    1W        W41866  24.904  22.328   2.192  0.1642  0.1474 -0.1272
    1W        W41867   7.678  22.101   6.832 -0.0572  0.0141  0.4667
    1W        W41868  12.976   2.516   8.203 -0.2065 -0.0324 -0.0480
    1W        W41869  10.015   1.660   8.428  0.0559 -0.2518 -0.2240
    1W        W41870  18.380  12.959   8.126 -0.0846  0.2879 -0.2380
    1W        W41871  19.767  26.418   1.074  0.3168 -0.0116 -0.1018
    1W        W41872  13.959  12.019   7.389  0.1045 -0.2309 -0.2204
    1W        W41873  25.738   1.065   2.629 -0.0549  0.0827  0.3884
    1W        W41874   2.363  24.873   8.518 -0.0371 -0.1552 -0.1666
    1W        W41875   9.229  19.334   8.661  0.2928  0.0895 -0.1138
    1W        W41876  27.147   6.868   0.454 -0.0202  0.1909 -0.3252
    1W        W41877  24.518  22.197   7.056 -0.0469 -0.0731 -0.1648
    1W        W41878  27.993  18.417   8.737  0.1802  0.1014  0.1285
    1W        W41879  17.078  28.812   7.483 -0.2633  0.0494  0.1212
    1W        W41880  17.124  24.971   8.524 -0.1115 -0.4442  0.3035
    1W        W41881  21.073  13.434   0.839 -0.2537 -0.0507 -0.2069
    1W        W41882   2.043  25.497   3.252 -0.1393 -0.0240 -0.3531
    1W        W41883  12.839   5.069   8.520  0.1761  0.3250  0.0457
    1W        W41884  15.673  27.350   1.940 -0.1621  0.1696  0.0244
    1W        W41885   1.452  10.117   1.618  0.0540  0.0871  0.2333
    1W        W41886   8.990   1.664   2.831 -0.2739 -0.1161  0.0599
    1W        W41887  29.942  11.886   8.014 -0.2143  0.1609  0.1515
    1W        W41888  18.520  24.856   2.409  0.0513 -0.0872 -0.1236
    1W        W41889  20.198  16.552   0.074 -0.2740  0.0730 -0.0939
    1W        W41890  20.832   5.364   1.320  0.0971  0.3027  0.0556
    1W        W41891  12.270  28.694   3.169 -0.0816 -0.0032  0.3097
    1W        W41892  14.155  20.481   1.238  0.1999  0.2904 -0.0370
    1W        W41893  18.614  12.925   1.758 -0.1400 -0.0436  0.0590
    1W        W41894  19.318  27.615   0.464 -0.3349 -0.1067 -0.2907
    1W        W41895  23.982  24.402   0.349  0.0248 -0.4209  0.4124
    1W        W41896   6.760  26.564   8.784  0.1482 -0.1011  0.2607
    1W        W41897   5.480  13.863   6.585 -0.0645 -0.0590 -0.0294
    1W        W41898  14.708  24.295   2.352  0.0257 -0.0568  0.1006
    1W        W41899  27.892  22.306   6.502 -0.1387  0.0524  0.2655
    1W        W41900  21.590   4.294   7.436  0.0228  0.1117 -0.2626
    1W        W41901   7.229  14.994   6.932  0.2714  0.1589 -0.1953
    1W        W41902  26.723   2.001   7.095 -0.1418  0.0062  0.0168
    1W        W41903   8.905  23.737   0.391 -0.0001 -0.2197  0.4070
    1W        W41904   9.117  11.012   8.114  0.2158 -0.0075  0.1546
    1W        W41905  22.678  19.587   2.057  0.1335 -0.1172 -0.2183
    1W        W41906  13.573  12.164   2.877  0.2906 -0.0418 -0.1217
    1W        W41907   1.497  17.992   0.883 -0.0241 -0.1118  0.0265
    1W        W41908  23.457  14.192   6.270  0.0566 -0.0924 -0.2561
    1W        W41909  23.032   6.408   0.915 -0.4785  0.1724 -0.0644
    1W        W41910  22.782  16.583   1.963 -0.0197  0.2678  0.1698
    1W        W41911  13.970  18.315   0.811 -0.5667 -0.3250  0.3031
    1W        W41912  18.447  15.548   9.026  0.0503 -0.2019  0.3011
    1W        W41913   2.322  29.933   7.027  0.3423  0.0447  0.3416
    1W        W41914   5.907  22.962   8.497  0.1789  0.1823 -0.0063
    1W        W41915  19.654  26.315   1.969  0.2800 -0.2711 -0.1752
    1W        W41916   0.918  12.037   8.042 -0.1058 -0.1002  0.0698
    1W        W41917  23.679   3.178   2.574 -0.0790 -0.1925 -0.0628
    1W        W41918  25.503  13.536   8.774  0.0652 -0.2152 -0.1386
    1W        W41919  18.911  29.219   3.057 -0.0027 -0.2579 -0.1277
    1W        W41920  15.827  24.034   7.319 -0.0753  0.1121 -0.2314
    1W        W41921   4.938  13.423   7.960 -0.2162 -0.1701  0.2321
    1W        W41922  20.116   3.606   0.763 -0.0449  0.0553 -0.2117
    1W        W41923   6.507  17.365   1.525 -0.1680  0.1026  0.0111
    1W        W41924   9.997   9.044   7.710  0.0196 -0.0215  0.0163
    1W        W41925  15.688  12.248   3.297  0.1880 -0.2257  0.1286
    1W        W41926   8.103  22.354   8.780  0.0984 -0.4326 -0.0725
    1W        W41927  10.135   4.967   6.732  0.0540  0.1082  0.2779
    1W        W41928  28.681  17.943   1.176  0.0201 -0.0270  0.1531
    1W        W41929   0.051  25.576   2.465 -0.0788  0.0823 -0.0193
    1W        W41930  23.268  14.928   7.931 -0.1325  0.0061 -0.2646
    1W        W41931   1.894   5.383   7.729 -0.1350  0.1937 -0.1214
    1W        W41932  19.988  26.500   9.041  0.1157 -0.0116  0.1051
    1W        W41933   3.202  23.519   1.781  0.0960 -0.0928  0.0606
    1W        W41934  28.848  29.002   3.286 -0.1178 -0.0544  0.1090
    1W        W41935  26.548   1.993   8.790  0.0403  0.1654  0.0349
    1W        W41936  19.234   3.356   1.155  0.2234 -0.5079  0.1178
    1W        W41937  26.759  12.552   7.289  0.0340  0.2433  0.0741
    1W        W41938  21.737  21.388   8.527  0.1515  0.2089 -0.0545
    1W        W41939  21.417  27.571   1.938 -0.2614 -0.1567  0.1210
    1W        W41940  21.766   2.681   0.434 -0.2597 -0.2685  0.1845
    1W        W41941  14.717  25.859   8.497 -0.0698  0.2722  0.0696
    1W        W41942  24.201  10.681   6.849  0.1039  0.1133 -0.2917
    1W        W41943  26.902  28.043   0.930  0.0158 -0.2668 -0.1116
    1W        W41944  21.487  21.835   8.311  0.0388 -0.1597 -0.0812
    1W        W41945  23.011   0.174   7.162 -0.2457  0.0991 -0.2144
    1W        W41946  16.324  15.782   8.683 -0.1418 -0.0420 -0.0659
    1W        W41947  20.502  16.887   6.082 -0.1494  0.0474  0.0429
    1W        W41948  27.823  20.855   8.845  0.4951 -0.0532  0.0984
    1W        W41949  29.640  20.191   1.713  0.1093  0.0543  0.2046
    1W        W41950   8.775  20.074   6.314  0.0414 -0.0797 -0.1666
    1W        W41951  28.674  18.184   0.727  0.0484 -0.3588  0.1611
    1W        W41952  15.420   3.417   0.229  0.0441  0.4920  0.1690
    1W        W41953   1.622   1.844   6.925  0.0295  0.3161  0.2865
    1W        W41954  14.741   0.157   7.480 -0.0733 -0.1750 -0.1472
    1W        W41955  28.527  24.808   9.262 -0.0585 -0.1023 -0.1237
    1W        W41956  18.692  20.590   2.713 -0.0698  0.2834 -0.1140
    1W        W41957   1.985  22.276   8.246 -0.2630  0.4796 -0.1931
    1W        W41958  15.299  28.355   1.397  0.2817  0.0247  0.1549
    1W        W41959   4.115  15.893   7.828  0.3171 -0.1737  0.0131
    1W        W41960  27.097  15.737   2.178  0.1371 -0.0075  0.0185
    1W        W41961  14.982   1.384   6.878  0.1190 -0.0967  0.3729
    1W        W41962   3.574   4.023   1.419  0.1893 -0.3336 -0.1789
    1W        W41963  29.842  12.542   7.298 -0.1520 -0.0998 -0.2582
    1W        W41964  15.209   7.915   0.374  0.1994  0.3699  0.0962
    1W        W41965  15.665   6.161   1.754  0.2787 -0.0239  0.0580
    1W        W41966  12.561  28.875   8.692 -0.1084  0.1334  0.0410
    1W        W41967  27.702  17.799   0.636  0.3095 -0.1338 -0.2297
    1W        W41968  27.541  17.459   1.118 -0.1772  0.0870 -0.0297
    1W        W41969  19.412  26.766   1.800 -0.0785 -0.0575  0.3311
    1W        W41970   8.769  25.126   8.920  0.0227  0.1126  0.0745
    1W        W41971  23.242  24.585   6.348 -0.4174  0.3082 -0.0243
    1W        W41972  13.374  15.421   2.924  0.2023  0.2539  0.6389
    1W        W41973  14.013  11.164   0.016  0.2351  0.1306  0.2169
    1W        W41974  12.904   6.961   7.594  0.0765  0.0999 -0.1006
    1W        W41975  20.372  23.530   0.037 -0.0251 -0.2076 -0.0273
    1W        W41976  23.139  12.409   0.881 -0.1983 -0.0382  0.0725
    1W        W41977  15.329   4.595   1.631 -0.0061 -0.2660  0.2885
    1W        W41978   8.342   0.347   7.653  0.2258 -0.1387 -0.0518
    1W        W41979   6.015   4.601   8.120  0.2444 -0.0021 -0.0428
    1W        W41980  18.321  16.409   6.931 -0.0773  0.2524 -0.5298
    1W        W41981  13.264  28.725   6.558 -0.2986 -0.3266  0.0703
    1W        W41982   6.466  15.019   7.455 -0.1482 -0.0783 -0.0872
    1W        W41983  26.056  30.143   7.995  0.2645 -0.0113  0.0305
    1W        W41984  17.996  20.478   1.027  0.1156  0.1489  0.6522
    1W        W41985  20.959   9.909   0.774  0.0705 -0.1618 -0.0931
    1W        W41986  20.335   5.996   8.923 -0.2823  0.2182 -0.4529
    1W        W41987  20.674  13.927   6.666  0.0292  0.2244  0.3506
    1W        W41988   3.083  22.518   7.360 -0.1753 -0.1378  0.2150
    1W        W41989  11.698  11.295   9.000  0.0166  0.0796 -0.0281
    1W        W41990  26.442   7.161   2.745  0.2400  0.0543  0.1193
    1W        W41991  20.897  19.550   0.949  0.0065  0.0574  0.0654
    1W        W41992  18.004   5.124   7.562  0.0630  0.1309 -0.3282
    1W        W41993  11.149  21.699   1.804  0.1389 -0.3104  0.1583
    1W        W41994   6.983   3.882   9.227 -0.1506  0.1825  0.0383
    1W        W41995  15.090   9.654   8.733  0.0728 -0.2453 -0.4327
    1W        W41996   4.781  19.434   1.932  0.3490 -0.0898  0.2510
    1W        W41997  27.251   5.944   8.332  0.0351  0.2379  0.2012
    1W        W41998  24.291   0.287   7.957 -0.1651 -0.3454 -0.1932
    1W        W41999  28.864   9.484   0.224 -0.0234  0.3485 -0.4436
    1W        W42000  25.443   7.759   0.596 -0.0790 -0.0795  0.0048
    1W        W42001  30.170  17.250   0.662  0.1045 -0.1472  0.0640
    1W        W42002   8.040  17.135   0.090 -0.1016  0.0418  0.2766
    1W        W42003  12.520  15.647   7.013  0.1089  0.2674 -0.1860
    1W        W42004  11.105  24.587   8.751 -0.1044  0.1503 -0.0693
    1W        W42005   9.873  18.716   2.034 -0.0956  0.0962  0.0788
    1W        W42006  27.173   8.036   6.524 -0.3436 -0.1734 -0.1063
    1W        W42007   7.690   3.956   2.430  0.0405 -0.2508 -0.2710
    1W        W42008   2.381  15.595   0.999 -0.2359  0.2035 -0.0136
    1W        W42009  20.182  23.168   0.936  0.0566  0.1293 -0.0770
    1W        W42010   2.457  19.385   8.020 -0.1513 -0.2276 -0.2560
    1W        W42011   3.252  21.535   7.163 -0.0957 -0.0480 -0.0116
    1W        W42012   3.361  28.756   3.318 -0.1444  0.2155 -0.1692
    1W        W42013  20.219  27.277   2.606  0.0186  0.0308 -0.0131
    1W        W42014   4.574  21.721   0.855 -0.1549  0.0027  0.1640
    1W        W42015   4.303  26.645   8.897  0.1154 -0.0664 -0.1768
    1W        W42016   5.836  16.725   6.684  0.0387 -0.2141  0.4015
    1W        W42017  23.749  22.928   6.523 -0.2316 -0.3488  0.1028
    1W        W42018  22.823  17.902   7.347 -0.1596 -0.2206 -0.1077
    1W        W42019   9.836  24.907   6.193 -0.0572 -0.0179  0.3132
    1W        W42020  13.729  13.825   1.845  0.1494  0.0032  0.0188
    1W        W42021  16.561  27.864   7.219  0.4202 -0.0819 -0.1011
    1W        W42022  15.485   5.493   6.208  0.1445  0.1710  0.3211
    1W        W42023   5.706   0.578   2.682  0.0131 -0.1217 -0.2437
    1W        W42024  12.217   2.756   7.802  0.1372  0.1226 -0.1962
    1W        W42025  13.170  13.859   1.908 -0.2266 -0.0712 -0.1557
    1W        W42026  28.145  26.169   8.795 -0.1794 -0.0039  0.1785
    1W        W42027  22.976   2.528   1.683 -0.2917  0.0116  0.0108
    1W        W42028   0.762   3.261   8.842 -0.2769 -0.0381 -0.0173
    1W        W42029  10.472  19.330   7.411  0.0464  0.1913  0.0093
    1W        W42030  20.253   3.369   6.715 -0.1438  0.4146 -0.0267
    1W        W42031   4.358  29.471   3.329 -0.0404  0.0019 -0.1832
    1W        W42032   5.269  25.732   7.863  0.0335  0.1855 -0.1542
    1W        W42033  13.243   2.188   8.472  0.2429  0.1204  0.0285
    1W        W42034  22.533   7.000   5.803  0.1610 -0.0863 -0.3153
    1W        W42035  20.898  24.065   0.918  0.3684 -0.2291  0.0965
    1W        W42036  30.292  21.538   0.632 -0.1227  0.2704 -0.3037
    1W        W42037   9.129   1.339   8.865  0.4580 -0.2278  0.2845
    1W        W42038  24.269   2.813   0.623 -0.0022 -0.1224  0.4153
    1W        W42039  28.187  16.754   8.726  0.1834 -0.0026 -0.0316
    1W        W42040  22.507  17.117   1.938 -0.1948  0.0629 -0.0565
    1W        W42041  22.024  17.739   1.539  0.4106  0.0825 -0.2706
    1W        W42042   4.430   3.410   0.174 -0.1267  0.0659 -0.1188
    1W        W42043   7.630  11.217   7.067 -0.0800  0.0672 -0.5550
    1W        W42044  13.427  21.201   6.741  0.1101 -0.2201 -0.4907
    1W        W42045  10.086  13.927   2.356  0.0798 -0.2862  0.0760
    1W        W42046  16.144  27.721   3.579 -0.1230  0.0484 -0.2429
    1W        W42047   2.447   5.501   2.044 -0.1231  0.1128  0.0309
    1W        W42048  21.240   7.384   7.632  0.1183  0.2312  0.1539
    1W        W42049  29.359   3.974   7.966  0.3512  0.3574 -0.4256
    1W        W42050  24.303  26.038   2.680 -0.3628 -0.0784 -0.0661
    1W        W42051  24.569  15.299   0.820  0.2044  0.1918  0.0521
    1W        W42052  16.576  25.671   3.032 -0.0026 -0.1302 -0.0342
    1W        W42053  27.044   3.398   7.953 -0.1812 -0.1057  0.3021
    1W        W42054  21.108  12.542   7.076  0.1749  0.1294 -0.0208
    1W        W42055   4.965  29.193   2.585  0.2100 -0.1816 -0.0771
    1W        W42056  12.928  18.655   6.455  0.0567 -0.2601 -0.2061
    1W        W42057  21.627   5.302   3.475 -0.0172 -0.1534  0.0836
    1W        W42058   8.365   5.077   8.606  0.1715  0.1004 -0.2172
    1W        W42059  23.858  10.494   8.651  0.2364  0.0191  0.0952
    1W        W42060  12.266  24.005   2.361  0.2382 -0.1320 -0.1891
    1W        W42061   7.279  26.653   8.925 -0.1731 -0.0275 -0.0195
    1W        W42062   2.874  10.001   9.061 -0.0936  0.2108  0.1461
    1W        W42063   0.104  13.301   1.117  0.1395 -0.2746 -0.0049
    1W        W42064  28.118  23.649   9.044 -0.2237 -0.1475  0.0468
    1W        W42065   8.375  19.947   0.509 -0.0731  0.1742  0.3747
    1W        W42066  11.198  30.119   3.016  0.0854  0.1928 -0.1033
    1W        W42067  14.374   1.190   2.677  0.1742  0.2321  0.0711
    1W        W42068  12.381  13.654   0.404  0.0022 -0.1874  0.0783
    1W        W42069   4.025  11.021   6.588  0.2841  0.0837  0.1261
    1W        W42070   1.537  25.622   0.338 -0.0755 -0.1110  0.2201
    1W        W42071   1.734  20.698   6.949 -0.2095  0.4405 -0.2534
    1W        W42072   6.992  16.737   8.972  0.0879  0.4048  0.0013
    1W        W42073  14.682  14.920   6.824  0.0103  0.0191 -0.1287
    1W        W42074   2.159   8.782   2.953 -0.1393  0.2250 -0.2429
    1W        W42075  25.731  11.269   0.692 -0.0454  0.3613  0.1481
    1W        W42076  21.231   2.612   1.152  0.0092 -0.0327  0.0124
    1W        W42077  20.202  20.233   0.505 -0.0727  0.0979 -0.0138
    1W        W42078  24.143  21.016   8.785 -0.1123 -0.0909 -0.2979
    1W        W42079  11.815   7.057   0.793  0.2182  0.2498  0.1941
    1W        W42080  22.672  25.420   8.679  0.0921  0.2673 -0.1150
    1W        W42081  18.796  10.929   0.095 -0.0299  0.4323  0.0838
    1W        W42082  13.264  27.853   1.226 -0.3189 -0.4778  0.2801
    1W        W42083   5.268   7.613   1.736  0.1286 -0.1875  0.0954
    1W        W42084  24.370   3.830   0.686 -0.2892  0.2777 -0.0469
    1W        W42085  24.108   5.916   2.352 -0.1619  0.0739  0.1235
    1W        W42086   3.710   4.202   0.815  0.0787 -0.0924 -0.0301
    1W        W42087  24.511  14.268   8.472  0.0295 -0.3266  0.0877
    1W        W42088  29.106  25.991   8.598 -0.2936  0.1374  0.0114
    1W        W42089  30.182  13.257   8.037 -0.3324  0.2745 -0.2255
    1W        W42090  17.495   1.919   8.145  0.0033 -0.2598  0.0881
    1W        W42091   9.178   4.916   0.425  0.0587  0.1325 -0.0525
    1W        W42092   5.477   9.579   0.694 -0.0670  0.0662 -0.2131
    1W        W42093  27.294   0.006   1.149  0.2276 -0.0182 -0.1287
    1W        W42094   1.955  25.104   8.701 -0.0492  0.1468 -0.0105
    1W        W42095  22.527   7.755   7.267 -0.0011  0.0159 -0.0595
    1W        W42096  11.715  30.149   9.079 -0.0567 -0.0700 -0.1705
    1W        W42097  11.126  12.997   0.060 -0.3021  0.3157 -0.0104
    1W        W42098  26.541  19.014   9.022 -0.0800 -0.0669  0.1819
    1W        W42099  15.374  19.381   1.650  0.2198 -0.0753  0.0639
    1W        W42100   5.976   5.519   0.773  0.1710 -0.1723  0.1353
    1W        W42101  17.986  25.522   5.991 -0.2797 -0.0368 -0.0926
    1W        W42102  22.037  12.913   1.049 -0.2508 -0.2067  0.1719
    1W        W42103   2.494  11.975   7.197 -0.4076 -0.3060  0.1407
    1W        W42104  25.516  28.891   1.061 -0.2764  0.0246  0.1890
    1W        W42105   2.483   4.643   8.056  0.0939  0.3509  0.0084
    1W        W42106  19.985  10.039   1.925  0.3044 -0.1451 -0.0195
    1W        W42107  26.837  21.605   7.456 -0.2597 -0.1759  0.1979
    1W        W42108  30.351   0.273   8.422  0.3083 -0.1138  0.1839
    1W        W42109   3.222  27.419   2.830  0.4914  0.1973 -0.0852
    1W        W42110  28.557  18.953   7.890 -0.3533 -0.0219  0.0198
    1W        W42111  18.683   3.094   9.132 -0.1876  0.0734  0.2055
    1W        W42112   5.584  10.964   0.016  0.1308  0.0926  0.2034
    1W        W42113  12.952  10.902   3.083 -0.0195  0.1471  0.1900
    1W        W42114   7.552   4.180   8.251  0.2234  0.1504 -0.0645
    1W        W42115  22.314  14.518   1.585  0.4239  0.0520 -0.0753
    1W        W42116  24.538  15.964   8.952  0.2833 -0.1378  0.3090
    1W        W42117   0.435   7.783   6.346 -0.0072 -0.0401 -0.0726
    1W        W42118  18.150  20.885   1.422  0.1990  0.0599 -0.0813
    1W        W42119  16.468  28.270   2.182 -0.1707 -0.0545 -0.1102
    1W        W42120   7.053  15.216   7.340 -0.1305  0.2072  0.1579
    1W        W42121  24.397   1.840   8.963  0.2190 -0.2996 -0.0106
    1W        W42122  15.271  22.617   7.358  0.1579  0.0217 -0.2378
    1W        W42123  12.227  28.021   0.327  0.1035 -0.0801  0.2057
    1W        W42124  27.089  10.787   7.385  0.3777 -0.2678 -0.1719
    1W        W42125  27.806   8.312   1.906  0.0305  0.0739 -0.1323
    1W        W42126  20.736  29.070   2.383 -0.1650  0.2728  0.0669
    1W        W42127   7.569  22.406   1.979  0.0225  0.0496  0.0017
    1W        W42128  29.032   8.698   3.016 -0.0421 -0.2392  0.5586
    1W        W42129   0.883   2.542   8.281 -0.0260 -0.2060  0.1481
    1W        W42130  14.493  14.568   0.103 -0.2994  0.0241  0.0205
    1W        W42131   6.130   7.776   9.258 -0.0260 -0.3165 -0.0904
    1W        W42132   1.709  15.759   0.774  0.3386 -0.0151 -0.0272
    1W        W42133  12.154  26.538   2.074 -0.1297 -0.2316  0.1082
    1W        W42134  25.167  12.277   0.320 -0.0537 -0.0832  0.1641
    1W        W42135  16.721   1.669   0.887  0.0368  0.2754 -0.1512
    1W        W42136  22.013  17.512   1.041  0.2047 -0.0895  0.3362
    1W        W42137  15.498  20.856   1.640 -0.2008 -0.0116 -0.3609
    1W        W42138  12.256  13.239   8.339 -0.2727  0.0669 -0.0058
    1W        W42139  23.161   7.050   1.172 -0.1981 -0.2321  0.2165
    1W        W42140   4.072  29.743   1.290 -0.1265 -0.0889 -0.3017
    1W        W42141   0.195  28.292   2.018 -0.0226  0.4125 -0.1060
    1W        W42142   6.624   2.478   2.829  0.1311  0.1985 -0.2821
    1W        W42143  28.821  18.364   1.354  0.1227 -0.0030  0.0053
    1W        W42144  27.290   4.983   3.708 -0.1444 -0.0562 -0.0777
    1W        W42145  19.724  18.369   8.060  0.0655 -0.1721  0.1731
    1W        W42146   3.751  17.054   1.687 -0.0290  0.3498 -0.0877
    1W        W42147   8.611  27.779   0.537  0.1045 -0.4775 -0.2116
    1W        W42148  15.592  16.968   3.027  0.0995  0.1869 -0.1290
    1W        W42149   3.313  16.929   1.366  0.0907  0.0799 -0.4879
    1W        W42150  30.177  13.812   0.406  0.3954  0.3697  0.0152
    1W        W42151  21.510  17.913   5.628  0.2648 -0.3023 -0.4357
    1W        W42152   4.991  12.954   1.591  0.1751 -0.0961 -0.0301
    1W        W42153   0.357  27.881   3.495  0.1883 -0.1485 -0.1929
    1W        W42154  13.727  13.600   8.992 -0.0564 -0.1103 -0.3297
    1W        W42155  13.905  19.569   6.100  0.0918  0.3953 -0.1057
    1W        W42156  10.666   1.590   1.914 -0.1084  0.0155  0.0612
    1W        W42157  13.710  22.596   1.059  0.0113  0.1884  0.3000
    1W        W42158  23.924  20.779   8.455 -0.1364 -0.3916 -0.0389
    1W        W42159   4.540   6.017   1.095  0.1055  0.1475  0.0742
    1W        W42160  15.134   2.744   2.634 -0.0825  0.1025  0.4297
    1W        W42161  27.225  27.423   0.677 -0.3787 -0.0758 -0.2227
    1W        W42162  22.365  28.618   2.726 -0.2800  0.0711 -0.0058
    1W        W42163  15.172   9.435   0.181  0.0429 -0.1319 -0.0363
    1W        W42164  19.128  10.250   1.704 -0.1662  0.0633  0.0664
    1W        W42165  27.724  16.578   8.712 -0.0777 -0.0660 -0.0610
    1W        W42166  29.262  26.223   6.663  0.0107 -0.1804  0.2010
    1W        W42167  16.418   3.111   6.178  0.0182 -0.0428  0.3126
    1W        W42168  27.518   0.845   8.713  0.0047 -0.2756  0.1894
    1W        W42169  20.978  22.755   1.210 -0.3730  0.2424 -0.2590
    1W        W42170   9.439   9.689   0.900 -0.0741  0.4077 -0.1661
    1W        W42171  20.750  20.834   1.109  0.3740 -0.1834 -0.1065
    1W        W42172  13.399  19.703   2.634 -0.0910 -0.0169 -0.0448
    1W        W42173  11.162   9.388   2.233  0.0043  0.1607  0.0023
    1W        W42174  20.015  20.054   0.972  0.3031  0.1868 -0.4681
    1W        W42175   6.119  21.777   6.350  0.0777 -0.0615 -0.1506
    1W        W42176  16.486   7.576   6.700  0.0003 -0.5738  0.0916
    1W        W42177  13.920   6.994   7.614 -0.0783 -0.2011  0.2135
    1W        W42178  11.942   1.612   2.138 -0.1369  0.0069 -0.0062
    1W        W42179  24.652  22.140   7.622  0.1691  0.1667  0.1284
    1W        W42180   9.263  10.897   6.739 -0.0385 -0.2685  0.0681
    1W        W42181  15.679  15.421   0.729 -0.3593 -0.1133  0.1534
    1W        W42182   0.537  27.979   0.330 -0.0544  0.1504  0.1758
    1W        W42183  17.683  24.503   2.324  0.1504 -0.0848 -0.0027
    1W        W42184   2.720   6.887   2.570 -0.1225  0.2100 -0.1233
    1W        W42185  12.550  19.895   0.490  0.1893 -0.0305 -0.1289
    1W        W42186   3.660  24.345   2.016  0.1975 -0.0564  0.1367
    1W        W42187  26.489  28.856   8.808  0.4574  0.1669  0.0194
    1W        W42188   6.449  26.336   6.931  0.1986 -0.0064 -0.2915
    1W        W42189  23.655  24.673   1.513 -0.1534 -0.0615 -0.2928
    1W        W42190   0.306   7.285   6.245 -0.0326  0.0697  0.2456
    1W        W42191   7.714   1.300   3.243 -0.0041 -0.2495  0.3127
    1W        W42192   5.151  26.543   1.811  0.2422  0.2299  0.0051
    1W        W42193   7.999  25.833   7.479  0.1564  0.4100 -0.0142
    1W        W42194  20.768   1.413   2.813  0.0709 -0.1758 -0.1051
    1W        W42195   7.547  24.684   0.895 -0.1887 -0.4403 -0.1354
    1W        W42196  22.912  27.734   1.137 -0.1171 -0.2918 -0.0650
    1W        W42197  12.688   7.844   3.032 -0.0722  0.0815  0.3998
    1W        W42198  10.425  10.527   7.569  0.1381  0.0651 -0.0445
    1W        W42199  29.612  26.680   2.411  0.0737  0.1019 -0.3834
    1W        W42200  11.874   0.340   8.347  0.1926  0.1443  0.1053
    1W        W42201  17.561  20.893   2.081  0.1664 -0.0734  0.0960
    1W        W42202   2.044  29.088   0.348 -0.1517  0.0562 -0.2761
    1W        W42203   9.367  24.354   0.953 -0.0555  0.2533  0.0255
    1W        W42204   6.914  14.129   8.646  0.0177  0.1133 -0.2231
    1W        W42205   1.834   9.258   1.744  0.1922  0.0888 -0.2635
    1W        W42206   2.185   2.771   7.864  0.4043 -0.0760 -0.0540
    1W        W42207  15.934  29.403   1.107  0.3861 -0.1634  0.1928
    1W        W42208  18.485  29.950   8.935  0.1683 -0.2923  0.1287
    1W        W42209   6.340  20.991   8.623  0.2326  0.0042 -0.0862
    1W        W42210   6.544   2.502   0.168  0.0376 -0.1325 -0.0768
    1W        W42211   1.585  10.170   0.222  0.1209 -0.0970  0.1567
    1W        W42212  13.716  30.052   6.647  0.0552 -0.1618  0.3721
    1W        W42213  12.967  21.683   1.998  0.2854  0.3274 -0.1712
    1W        W42214  17.394   4.541   7.982  0.0018 -0.2549  0.1516
    1W        W42215  30.066   2.193   8.098  0.1950 -0.0345  0.0371
    1W        W42216  18.063  17.316   1.167  0.0083 -0.2198 -0.0836
    1W        W42217   4.011  18.324   0.236 -0.0665  0.0392 -0.1237
    1W        W42218   6.613  12.090   7.158  0.3651  0.2067  0.2512
    1W        W42219  27.173  12.721   1.225  0.2438 -0.1241 -0.0429
    1W        W42220  20.496  27.243   0.378 -0.2031 -0.1468  0.1461
    1W        W42221  21.794  21.593   8.010 -0.1731 -0.1451  0.2919
    1W        W42222   9.729   9.380   0.137 -0.0065  0.0536 -0.0419
    1W        W42223  30.155  21.814   7.538  0.0802 -0.3021 -0.1791
    1W        W42224  22.614   4.164   8.341 -0.0498  0.1148 -0.1299
    1W        W42225  16.767  26.237   0.803 -0.1666  0.0177  0.0511
    1W        W42226  24.246   2.056   1.731  0.3115 -0.0580 -0.0140
    1W        W42227  11.629   6.902   6.311 -0.0356 -0.1731 -0.0112
    1W        W42228  27.733  20.943   0.898  0.1112  0.1384  0.0618
    1W        W42229  19.915   0.244   1.562 -0.3333 -0.0575 -0.0035
    1W        W42230   9.411  25.245   1.474  0.0944 -0.0157  0.0589
    1W        W42231  20.350   1.976   0.520  0.0339 -0.0494  0.0203
    1W        W42232  17.495  27.491   0.819  0.0676  0.0348 -0.4515
    1W        W42233  14.181  17.444   7.033 -0.1596 -0.0157  0.0083
    1W        W42234   9.762  10.745   2.543  0.1144 -0.0428 -0.1981
    1W        W42235  28.414  25.909   7.646 -0.1079  0.3530  0.0267
    1W        W42236   5.397  26.562   7.237  0.2262 -0.1835 -0.0990
    1W        W42237  21.229   1.064   0.654  0.1389 -0.0228  0.1548
    1W        W42238   0.952  12.727   8.322 -0.2733 -0.1559 -0.0575
    1W        W42239  22.949  23.907   0.540 -0.0781  0.0786 -0.0856
    1W        W42240  29.147  21.954   6.759  0.3816 -0.1528  0.3142
    1W        W42241  13.450  29.891   8.590 -0.1704  0.1667 -0.1104
    1W        W42242  12.219  15.128   3.132 -0.1580 -0.1664  0.3289
    1W        W42243  19.966  18.890   6.157 -0.1579  0.0338  0.1214
    1W        W42244  27.189   9.841   7.162 -0.2959 -0.2749  0.0603
    1W        W42245   9.451   9.557   1.430  0.0750 -0.0825  0.0138
    1W        W42246   6.572   8.330   0.687 -0.1420  0.0253 -0.2293
    1W        W42247  20.813  11.098   8.161 -0.0184 -0.0927  0.3503
    1W        W42248   2.089  19.226   9.119 -0.0071 -0.2559  0.3009
    1W        W42249  27.649   3.196   8.795 -0.1189  0.0353 -0.0478
    1W        W42250   4.653  28.867   9.119 -0.5163 -0.0458 -0.0232
    1W        W42251  27.065   5.606   2.241  0.1354  0.1004 -0.1664
    1W        W42252  27.183  22.494   8.819  0.2161  0.0596  0.1320
    1W        W42253  29.285   7.806   1.253  0.2166  0.0019 -0.1287
    1W        W42254  28.383  27.945   7.428  0.1869 -0.2272  0.0410
    1W        W42255  20.540   5.863   7.512  0.0603 -0.1161  0.0316
    1W        W42256  13.595  19.270   6.391  0.3634 -0.0711 -0.0633
    1W        W42257   5.781   5.047   7.971 -0.1675  0.1102  0.2550
    1W        W42258  20.067  29.304   2.135  0.3835  0.2756  0.0707
    1W        W42259  28.255   4.710   3.804  0.0150 -0.2740  0.1023
    1W        W42260  21.959  17.534   2.356 -0.3994  0.0458 -0.0378
    1W        W42261   4.970  11.483   8.024  0.0670 -0.0551 -0.1138
    1W        W42262   6.763  10.407   7.683  0.1160 -0.2519 -0.2460
    1W        W42263   9.871   3.173   3.194  0.1911  0.3439  0.0590
    1W        W42264  19.616  26.101   9.104  0.0190 -0.1367  0.1823
    1W        W42265  15.529   2.694   8.560  0.0640 -0.2179  0.2507
    1W        W42266  17.663   1.389   0.615 -0.1023  0.0543  0.0217
    1W        W42267  24.410  12.651   6.929  0.5473 -0.2484  0.1581
    1W        W42268  11.332  21.097   8.865 -0.0100 -0.2032 -0.1280
    1W        W42269   6.812  27.013   7.475 -0.1319  0.0825 -0.1231
    1W        W42270  14.973  26.657   8.350  0.2019 -0.1717  0.1974
    1W        W42271  28.048   6.383   2.537 -0.0078 -0.0395 -0.0040
    1W        W42272  22.514   1.759   2.649  0.1167 -0.3079  0.0298
    1W        W42273  14.376   6.970   6.271  0.2374  0.1091  0.2729
    1W        W42274  26.540   7.837   2.131 -0.0821 -0.1782 -0.0356
    1W        W42275   8.027  19.022   6.274 -0.2624  0.0278  0.0062
    1W        W42276  23.838  20.947   5.755 -0.0848  0.0393 -0.0936
    1W        W42277   5.948   0.558   8.275  0.0646  0.1880  0.1333
    1W        W42278  10.113  28.991   2.165  0.1596 -0.0464  0.0673
    1W        W42279   4.037   2.559   0.167 -0.0776 -0.0172 -0.1827
    1W        W42280  18.455  23.736   8.045 -0.2628  0.0337  0.3250
    1W        W42281   9.694  18.898   6.455 -0.2771  0.1733  0.0438
    1W        W42282  21.138  13.011   7.138  0.0551 -0.0574 -0.1250
    1W        W42283  10.474   1.420   8.631 -0.0686 -0.0536  0.1214
    1W        W42284  25.244   1.077   2.289  0.0704 -0.0357 -0.1807
    1W        W42285  15.661  28.323   1.768  0.1374 -0.0111  0.0781
    1W        W42286  27.805   3.631   1.155 -0.0022  0.0763  0.0936
    1W        W42287  22.802  24.643   1.050 -0.0857  0.0554  0.1058
    1W        W42288  24.772   3.419   1.343 -0.1316 -0.0919 -0.0135
    1W        W42289  20.201  15.994   7.883  0.1231  0.0474 -0.0187
    1W        W42290  30.002  27.554   8.324 -0.4959  0.1870  0.0786
    1W        W42291  26.397  13.712   6.968 -0.0199  0.3117 -0.0265
    1W        W42292  18.978  26.376   1.453  0.1836 -0.2139  0.2392
    1W        W42293  21.587   3.996   8.717 -0.0859 -0.1654 -0.2342
    1W        W42294   9.385  24.473   1.989  0.4681 -0.1176  0.1221
    1W        W42295  28.120  23.025   2.081 -0.1288 -0.2521 -0.1931
    1W        W42296  13.101  11.689   8.447 -0.1530 -0.1354  0.0164
    1W        W42297  28.942   0.306   3.082 -0.1125  0.1225  0.1366
    1W        W42298   1.886  10.864   1.123  0.0167  0.0543  0.0792
    1W        W42299   1.947   1.123   1.421  0.0149  0.0711  0.0179
    1W        W42300  25.175  14.163   9.212 -0.1915  0.3153 -0.1219
    1W        W42301   4.794  11.901   1.091  0.0398 -0.0010 -0.0529
    1W        W42302   1.108  15.940   1.036  0.2156  0.1117  0.0403
    1W        W42303  30.331   3.903   1.180  0.1215 -0.0429  0.1425
    1W        W42304  21.776  25.201   8.099 -0.1180 -0.1352 -0.1429
    1W        W42305   5.874  25.158   7.392  0.1896 -0.0594  0.0691
    1W        W42306  12.351  19.497   7.735  0.1389 -0.0221 -0.0096
    1W        W42307  26.539   6.371   7.558 -0.1660  0.1461  0.2625
    1W        W42308  12.608  18.655   0.925  0.1044 -0.1042 -0.2330
    1W        W42309  12.054   8.124   8.522 -0.0754  0.3112  0.1620
    1W        W42310   6.632  19.964   7.217  0.1539  0.4202 -0.0417
    1W        W42311  23.540  28.511   0.244  0.0326  0.1123 -0.0852
    1W        W42312  22.818  11.783   1.027 -0.1763 -0.1134  0.0679
    1W        W42313  22.603  19.410   7.864 -0.0849 -0.0933  0.2257
    1W        W42314  19.306   5.320   8.886  0.0961 -0.1216 -0.0970
    1W        W42315   8.184   5.846   1.435  0.0501 -0.0899  0.0911
    1W        W42316  20.470  27.896   7.739 -0.2393 -0.1758 -0.1027
    1W        W42317   0.356  12.021   8.962 -0.0556 -0.0120 -0.0882
    1W        W42318   8.747  17.730   0.002 -0.1314 -0.2350 -0.1289
    1W        W42319  16.401   6.487   7.953  0.2048 -0.1441  0.1368
    1W        W42320  22.417   1.179   1.896  0.1601 -0.2586 -0.0955
    1W        W42321   8.607  24.669   9.131  0.0099  0.1143 -0.0685
    1W        W42322   7.030  16.887   6.378 -0.1051  0.4270  0.1495
    1W        W42323  25.406   2.330   8.032 -0.0308 -0.0923  0.0623
    1W        W42324  18.583   6.052   2.151  0.1007 -0.0654  0.0778
    1W        W42325   7.446   9.718   7.690  0.2758 -0.0783 -0.0839
    1W        W42326  15.930   6.324   7.716  0.2106  0.1233  0.3016
    1W        W42327  25.516  26.194   9.089 -0.1076 -0.1812  0.2716
    1W        W42328   7.696   9.393   8.503  0.0319 -0.0766  0.0776
    1W        W42329   1.787  19.960   1.167  0.1238  0.1246  0.1583
    1W        W42330  12.372  18.995   1.164 -0.0851 -0.1246 -0.0734
    1W        W42331   3.351   4.910   7.940  0.0033 -0.0597 -0.1656
    1W        W42332  28.441   0.700   2.393  0.1058  0.0034  0.1376
    1W        W42333   8.301  13.011   2.114  0.0346 -0.1645  0.3119
    1W        W42334   7.458   1.963   0.098 -0.3157  0.2672  0.0593
    1W        W42335   2.847  16.898   1.734 -0.2615 -0.0021  0.1542
    1W        W42336   4.239   0.333   8.408  0.0776  0.4683  0.0375
    1W        W42337  13.695  17.574   0.545  0.1043  0.2162  0.0112
    1W        W42338  22.515  13.588   1.520  0.2043  0.4702 -0.0604
    1W        W42339  22.347   1.887   7.984 -0.1316  0.0629  0.1324
    1W        W42340  12.165  14.635   0.211  0.2755  0.1357  0.1640
    1W        W42341   9.826  18.039   7.424  0.0982  0.1990 -0.3438
    1W        W42342   9.912  29.859   1.182  0.0456  0.1921  0.0363
    1W        W42343  23.670  10.129   1.386  0.0709 -0.0530 -0.1863
    1W        W42344  16.714   3.128   7.143  0.2716  0.1513 -0.2926
    1W        W42345   3.556   9.522   2.101  0.3657  0.0574  0.0482
    1W        W42346   0.663  28.633   7.265  0.0055 -0.2127  0.1787
    1W        W42347  17.729  22.192   0.187  0.4114 -0.0939 -0.0237
    1W        W42348  14.624  23.285   7.724  0.2707 -0.0940  0.2550
    1W        W42349  24.870   3.133   7.920 -0.1428  0.0812 -0.0095
    1W        W42350   4.547  25.737   9.033 -0.1152  0.1183 -0.2110
    1W        W42351  24.309  13.577   2.155 -0.0303  0.1202 -0.1540
    1W        W42352   4.391   4.727   6.816 -0.0474  0.1790  0.3193
    1W        W42353  11.116  23.579   0.451  0.0846  0.0141  0.0433
    1W        W42354   5.627  23.192   8.893 -0.2617 -0.1431 -0.3529
    1W        W42355   4.175  17.130   7.199 -0.2347 -0.2697 -0.2488
    1W        W42356  23.028  16.869   1.525 -0.1042  0.0986 -0.2528
    1W        W42357  21.404  22.453   1.144  0.1229  0.3612  0.0111
    1W        W42358  29.100   3.408   1.285 -0.2524 -0.0172 -0.2765
    1W        W42359  26.327  21.183   0.129  0.3364 -0.1722  0.1131
    1W        W42360   6.104  26.639   0.655  0.1585 -0.1072  0.0687
    1W        W42361  15.124   1.991   7.132  0.3494 -0.2282  0.1261
    1W        W42362   1.024  27.995   0.361  0.1021  0.1902 -0.2263
    1W        W42363  23.364  26.736   9.155 -0.1658  0.0001 -0.0335
    1W        W42364   8.759  12.729   7.938 -0.0513 -0.1037 -0.0617
    1W        W42365  20.572   7.079   0.279  0.0425 -0.2396 -0.1006
    1W        W42366  18.680  14.803   7.322 -0.0026  0.4522  0.1016
    1W        W42367  28.585   1.169   1.128 -0.0149  0.0339  0.0947
    1W        W42368  24.601   0.991   7.172  0.1419 -0.0546 -0.1090
    1W        W42369  20.775   4.609   3.439 -0.3534 -0.0151  0.3655
    1W        W42370   7.898  30.291   2.242  0.3173  0.1375 -0.0590
    1W        W42371  19.853   7.439   8.823 -0.2100 -0.0661  0.1000
    1W        W42372  15.189  15.368   7.580 -0.0139  0.0784 -0.1712
    1W        W42373  20.317   8.966   7.411 -0.1104  0.0294 -0.0690
    1W        W42374  27.941   3.158   1.326 -0.1099  0.0706 -0.2759
    1W        W42375  24.666  30.120   7.703 -0.4928 -0.0188 -0.0579
    1W        W42376  29.511  23.680   6.782  0.0239  0.1132  0.1204
    1W        W42377   5.592  14.362   0.450  0.2008 -0.0378 -0.0162
    1W        W42378   1.638  10.504   8.733 -0.0798  0.0013 -0.0072
    1W        W42379  19.814  11.610   1.219  0.0363  0.1724  0.0901
    1W        W42380   6.319  12.054   1.555  0.0452  0.0408  0.1638
    1W        W42381  23.822  16.499   6.300 -0.0398  0.0333  0.0787
    1W        W42382  29.717   6.135   0.598  0.3406 -0.0667  0.0955
    1W        W42383  28.658  13.605   7.427  0.1860  0.0424  0.0365
    1W        W42384  12.353  30.267   7.654 -0.0177 -0.3083 -0.0301
    1W        W42385  12.818   1.593   8.917 -0.0169 -0.0261 -0.2674
    1W        W42386   0.968  10.609   2.269  0.3232  0.0463  0.4476
    1W        W42387  29.138  16.185   7.201  0.3223 -0.1133 -0.0717
    1W        W42388  20.637   8.884   8.869 -0.1674  0.1636  0.1361
    1W        W42389   4.603  27.718   3.615  0.0622  0.0408 -0.2138
    1W        W42390  14.367   1.327   1.742 -0.2910 -0.1322  0.1921
    1W        W42391  25.292  11.567   2.669 -0.0930  0.0791  0.0338
    1W        W42392  20.290   6.571   2.173 -0.1509  0.1170  0.1714
    1W        W42393   5.756  29.924   2.423  0.4175 -0.0994 -0.2170
    1W        W42394   4.596  21.058   7.391  0.1104  0.0934  0.0667
    1W        W42395   8.723  16.689   7.710  0.0206 -0.0513 -0.2676
    1W        W42396  29.837  14.713   1.604  0.3689  0.1048 -0.0128
    1W        W42397  12.107  15.687   6.707 -0.1479  0.0956 -0.2153
    1W        W42398  26.681  10.371   1.599  0.1871  0.2533 -0.1648
    1W        W42399   8.442  15.172   0.687 -0.3396 -0.3203 -0.0988
    1W        W42400   7.328  19.796   6.630 -0.0946 -0.2468 -0.4194
    1W        W42401   9.978  27.205   7.598 -0.1523 -0.1470 -0.1326
    1W        W42402   4.005  16.345   0.576 -0.1411 -0.1300  0.0148
    1W        W42403   2.968  27.228   6.700  0.0044  0.0955 -0.0338
    1W        W42404   7.997   2.151   7.119  0.1762  0.2521  0.1727
    1W        W42405   5.998  14.818   7.304  0.2442  0.0498  0.1914
    1W        W42406   5.345  22.910   1.861  0.0560  0.0690 -0.4926
    1W        W42407   5.990   6.188   2.892 -0.0215 -0.1447 -0.0952
    1W        W42408  25.889  12.328   7.713  0.2479 -0.0599 -0.1171
    1W        W42409  12.454  15.252   8.119  0.2652  0.1504 -0.0533
    1W        W42410   6.841  12.752   8.515 -0.1822 -0.0804  0.0907
    1W        W42411   7.359  15.673   1.680 -0.2256 -0.2982 -0.5013
    1W        W42412   8.907   3.437   8.151 -0.0726 -0.0960  0.0112
    1W        W42413  29.339  26.496   6.214  0.2739 -0.0777  0.1021
    1W        W42414   7.261   2.694   8.718 -0.1706 -0.1106 -0.0180
    1W        W42415  27.876  21.223   9.174  0.2037 -0.2050 -0.0978
    1W        W42416  27.204   7.317   0.719 -0.0618 -0.3034 -0.2713
    1W        W42417  11.484  22.003   6.361  0.1914  0.1954  0.0818
    1W        W42418   1.002   4.256   0.012 -0.1430 -0.2111 -0.1524
    1W        W42419  15.620  20.789   6.503  0.0284 -0.1735 -0.1301
    1W        W42420  15.907  14.500   8.983 -0.0562  0.0985  0.1492
    1W        W42421  11.971  25.992   8.842 -0.0733 -0.0026  0.1827
    1W        W42422  29.937   6.076   2.608  0.3060  0.1291  0.0111
    1W        W42423   8.506  11.222   2.001  0.1229 -0.4305 -0.3494
    1W        W42424   8.987  30.125   7.700  0.0204 -0.0466  0.2100
    1W        W42425  23.835  20.333   8.701  0.1377  0.0605 -0.1759
    1W        W42426  15.031  11.403   7.644 -0.0551  0.2888  0.1562
    1W        W42427   2.154  26.522   9.216 -0.0284 -0.2441  0.4684
    1W        W42428  23.011   1.629   7.015  0.2395 -0.1697  0.1082
    1W        W42429   1.463   9.982   2.145 -0.1170 -0.0009  0.2289
    1W        W42430  12.638  14.539   0.392 -0.2148 -0.3848 -0.2512
    1W        W42431  14.749  24.449   6.956 -0.1591  0.0478 -0.3973
    1W        W42432  27.515   2.498   2.862  0.0598 -0.1809 -0.0300
    1W        W42433  12.430  12.372   0.053 -0.1071 -0.2904  0.0037
    1W        W42434  25.693  28.155   3.128  0.0194 -0.3006 -0.0124
    1W        W42435  29.325   1.963   3.261 -0.2731  0.2195 -0.3235
    1W        W42436  24.682  26.871   3.307 -0.1404  0.3043 -0.1661
    1W        W42437   3.246  12.633   1.440 -0.0246 -0.0689  0.0315
    1W        W42438  12.043  27.007   7.535  0.1666 -0.2997  0.0231
    1W        W42439   5.240   6.482   7.825  0.2276 -0.2328  0.5821
    1W        W42440  25.919   2.941   0.352  0.3849  0.0751 -0.0233
    1W        W42441   2.302   3.989   1.824 -0.1873 -0.1861  0.3311
    1W        W42442  26.919  10.464   8.525 -0.0237 -0.2181 -0.0303
    1W        W42443   3.771  19.290   7.661 -0.1472  0.1141 -0.0968
    1W        W42444   0.481  19.099   1.433 -0.0835  0.2670  0.4111
    1W        W42445  23.097  28.373   7.446  0.1696  0.1729 -0.0774
    1W        W42446  27.798   6.765   7.980 -0.1663  0.0319 -0.0404
    1W        W42447   0.097  28.234   2.948  0.2445  0.0581  0.2955
    1W        W42448   7.502  15.202   0.905  0.0824 -0.3390 -0.2041
    1W        W42449  14.520   8.824   0.444  0.1154  0.1811 -0.2452
    1W        W42450  28.642  26.813   2.625  0.0875  0.2508 -0.0770
    1W        W42451  26.534  20.830   6.403  0.2302 -0.0445  0.4118
    1W        W42452  22.820  27.836   2.560  0.3306  0.1753  0.2188
    1W        W42453  10.356   5.967   0.777 -0.1117  0.1192 -0.0438
    1W        W42454  23.707  19.262   8.665  0.0534  0.2049 -0.3184
    1W        W42455   1.971  11.148   8.421 -0.1049 -0.0557 -0.0186
    1W        W42456  23.970  28.956   6.402  0.2251  0.1025 -0.3838
    1W        W42457  13.496  16.702   8.117  0.2744 -0.0592  0.3323
    1W        W42458  16.085  24.715   0.711 -0.0731 -0.3536  0.1870
    1W        W42459  29.730   8.810   2.245  0.2103 -0.1855 -0.1649
    1W        W42460   2.580  22.605   7.206  0.1688  0.0034  0.1032
    1W        W42461   9.827  22.533   8.955 -0.2115 -0.1425  0.1213
    1W        W42462   5.472  28.959   0.504  0.1163  0.1371  0.2495
    1W        W42463  13.862  16.186   0.775 -0.0508  0.1184 -0.1967
    1W        W42464   4.420  27.023   1.771 -0.1568  0.2918 -0.5491
    1W        W42465  13.128   4.201   7.358  0.4091  0.1591  0.1171
    1W        W42466  18.895   2.657   8.403 -0.0491 -0.0378  0.0776
    1W        W42467  27.894  20.047   7.805 -0.2179  0.1619 -0.1040
    1W        W42468  15.844  25.153   6.712  0.3006 -0.4297  0.3691
    1W        W42469  14.464  28.539   8.681 -0.0362 -0.3735  0.0004
    1W        W42470   6.623   5.294   7.515  0.0082  0.1627 -0.1946
    1W        W42471  15.993  29.804   6.391 -0.1563 -0.0548 -0.1658
    1W        W42472  23.242  20.608   1.212 -0.0750 -0.0292 -0.1315
    1W        W42473  22.971   5.765   2.121 -0.0484  0.0379  0.2722
    1W        W42474  18.464  27.570   3.233  0.0401 -0.7145  0.0464
    1W        W42475   8.183  10.277   0.839  0.0175  0.0603 -0.2164
    1W        W42476   0.139   4.843   1.108  0.2042  0.2066  0.0509
    1W        W42477  15.443  21.012   8.086  0.2262 -0.0408 -0.0614
    1W        W42478  30.191  20.737   8.307  0.1138  0.3387  0.0033
    1W        W42479  27.869  13.175   0.622  0.2986 -0.0585 -0.0914
    1W        W42480  14.898  19.813   8.142  0.0628  0.0294  0.1168
    1W        W42481  29.895   8.253   1.086  0.2607  0.0473 -0.1784
    1W        W42482  28.465   7.937   7.466 -0.1269  0.0137  0.1214
    1W        W42483  27.986  19.384   5.614 -0.2269 -0.1102 -0.2805
    1W        W42484  11.554  21.662   0.261 -0.0058  0.3226 -0.3441
    1W        W42485  21.414  25.738   0.326 -0.0650 -0.2152  0.2960
    1W        W42486   2.293  12.221   1.538 -0.0690 -0.3929  0.1947
    1W        W42487   2.021  25.767   1.713 -0.3708 -0.0473 -0.0480
    1W        W42488   8.010  19.183   0.691 -0.3093 -0.0213 -0.0175
    1W        W42489   5.771   3.072   2.588 -0.1503 -0.1488  0.1475
    1W        W42490   5.321  23.668   0.425 -0.1466  0.0763  0.0175
    1W        W42491  28.960  13.826   0.221  0.0542  0.3287  0.1840
    1W        W42492  19.721  12.321   7.635  0.2248 -0.2019  0.1422
    1W        W42493  20.539  21.443   6.927  0.1678  0.0035  0.1069
    1W        W42494   2.465  21.156   8.551  0.0014  0.1637 -0.2567
    1W        W42495  16.656   5.193   2.490  0.0339 -0.2528  0.0593
    1W        W42496   3.060  11.161   8.931  0.1016 -0.1727  0.0705
    1W        W42497   6.229   8.023   7.150 -0.0894 -0.0796 -0.0659
    1W        W42498  20.622  12.323   7.353 -0.1040 -0.2507  0.0299
    1W        W42499  29.758  14.352   7.321 -0.1077  0.1133 -0.0076
    1W        W42500  22.243  23.264   1.397  0.2010 -0.2382 -0.0473
    1W        W42501  27.333   7.533   2.513  0.0975 -0.1953 -0.2684
    1W        W42502   2.231  22.949   2.257  0.0627  0.2190 -0.3322
    1W        W42503   1.525  12.031   0.874 -0.0615  0.0884 -0.2537
    1W        W42504  20.405   0.123   7.190 -0.1546  0.1588 -0.0109
    1W        W42505   3.931   9.557   0.462  0.0230  0.0860 -0.2792
    1W        W42506  10.856  12.749   7.770  0.1004 -0.1700 -0.0139
    1W        W42507   6.876  16.646   5.974  0.1171  0.4142  0.1025
    1W        W42508   2.777  13.938   9.221  0.0743  0.1467  0.2579
    1W        W42509   6.412   9.406   0.707 -0.1018 -0.0267 -0.2475
    1W        W42510  18.087  11.392   7.948 -0.0098  0.2588  0.0721
    1W        W42511  16.269   8.064   6.824  0.1425 -0.1139  0.2088
    1W        W42512  17.367   0.691   8.213  0.2543  0.0762  0.0923
    1W        W42513  22.754  13.634   6.667 -0.1959  0.0873  0.0360
    1W        W42514  18.477   7.374   0.657  0.0113  0.0953  0.0801
    1W        W42515   6.894  29.790   8.070 -0.0115 -0.0975 -0.0070
    1W        W42516  22.046  10.241   6.956 -0.1971  0.1414 -0.1451
    1W        W42517  24.347  25.917   8.583 -0.1240 -0.2509 -0.2378
    1W        W42518  29.810   1.932   0.026  0.1570  0.1262  0.1045
    1W        W42519  15.019   8.100   0.840 -0.3389  0.2419 -0.3349
    1W        W42520   6.054  28.971   8.702  0.2640  0.3199 -0.2613
    1W        W42521  25.177   1.841   0.928  0.0569  0.0225  0.0691
    1W        W42522  21.693  11.033   8.871  0.0102  0.0277 -0.0259
    1W        W42523  13.465  19.793   0.822 -0.1477  0.0274 -0.3105
    1W        W42524  24.964   8.220   5.971  0.0116 -0.2318 -0.2681
    1W        W42525  21.138   9.828   9.017 -0.1889  0.1791 -0.1023
    1W        W42526  10.563  20.761   0.392  0.1335  0.0961  0.0167
    1W        W42527  21.343  23.833   1.148 -0.1782  0.0119 -0.1200
    1W        W42528   4.688   7.672   1.326  0.1814  0.0972 -0.0886
    1W        W42529  10.646  17.461   2.843 -0.2104 -0.2290  0.0710
    1W        W42530   7.178  17.890   0.215 -0.2831  0.2615 -0.0931
    1W        W42531  24.155  25.162   8.054  0.0460  0.4904  0.1693
    1W        W42532  16.810  29.919   1.633  0.0449 -0.0192 -0.1202
    1W        W42533   0.802  15.540   0.853  0.1522  0.0670  0.0910
    1W        W42534  19.602  29.476   8.633 -0.2378  0.0377 -0.1640
    1W        W42535  19.827   4.017   8.375  0.0770  0.0835 -0.0427
    1W        W42536   3.525  15.229   0.799 -0.1062  0.2405  0.0605
    1W        W42537  13.520  20.190   2.261  0.0366  0.0663 -0.0134
    1W        W42538  19.383  23.237   6.953  0.1141 -0.1375 -0.0794
    1W        W42539  12.819   2.259   2.148 -0.3042 -0.1751  0.0766
    1W        W42540   9.213  20.813   1.861  0.3094 -0.0900  0.1137
    1W        W42541  14.668   4.728   2.179  0.3095  0.0313  0.0865
    1W        W42542  26.652   7.343   0.252 -0.1320  0.1055  0.3672
    1W        W42543  20.985  26.550   0.546 -0.0734 -0.1133 -0.1628
    1W        W42544   0.218  22.057   0.005  0.0514 -0.0727 -0.2376
    1W        W42545  14.136  15.952   0.425  0.2192  0.0760 -0.0491
    1W        W42546   5.429   9.745   8.842  0.1296  0.1576  0.0014
    1W        W42547  24.124   2.963   2.695  0.0210  0.1729  0.1821
    1W        W42548   0.455  21.230   0.306  0.3602 -0.0763  0.0679
    1W        W42549   2.187   4.803   0.353 -0.3443  0.0121 -0.0686
    1W        W42550  20.186   8.729   8.820 -0.0636  0.1156 -0.0323
    1W        W42551  20.476  26.697   8.851  0.0783  0.2063  0.2220
    1W        W42552  17.928  17.457   9.039 -0.0181 -0.1458  0.0060
    1W        W42553  28.411  26.180   0.087  0.0711  0.1243  0.1462
    1W        W42554   2.245   8.286   2.148 -0.0346  0.0449 -0.2734
    1W        W42555  26.794  17.554   1.492  0.0056 -0.0531 -0.0473
    1W        W42556   5.789  11.972   7.961  0.0518  0.2117 -0.0793
    1W        W42557  21.185  26.665   7.130 -0.1304 -0.0738  0.0503
    1W        W42558  13.348   9.630   0.332 -0.1737 -0.2190  0.1893
    1W        W42559  21.899  20.172   8.161  0.3535 -0.2537 -0.0386
    1W        W42560  23.691   9.537   7.030  0.3596  0.0721  0.0042
    1W        W42561  11.423  22.039   2.239 -0.2165 -0.2567  0.0568
    1W        W42562   5.682   3.365   7.434 -0.0473 -0.2833 -0.1026
    1W        W42563  11.714  21.880   2.639  0.0384 -0.1061  0.0935
    1W        W42564  12.974  15.539   1.917 -0.0034  0.3844 -0.0165
    1W        W42565  12.155  30.287   8.193 -0.1115 -0.1267  0.0269
    1W        W42566  27.394  14.679   6.825 -0.2162  0.0192 -0.3890
    1W        W42567  25.911  23.695   8.519 -0.2976 -0.4317 -0.1758
    1W        W42568  20.873  27.569   7.916 -0.1084  0.0568  0.0992
    1W        W42569   4.686   3.049   9.195  0.0463 -0.0484 -0.0567
    1W        W42570  12.220  20.990   1.428 -0.2516  0.0353 -0.0029
    1W        W42571   7.658  17.049   0.373  0.1945  0.2929 -0.2208
    1W        W42572  14.441  18.214   8.465 -0.0398  0.1828  0.1332
    1W        W42573   0.603  24.071   8.600 -0.1888  0.0275  0.2494
    1W        W42574  21.193  18.469   6.628 -0.0416 -0.1059 -0.2990
    1W        W42575   8.742  10.142   0.360 -0.3101 -0.0906 -0.3822
    1W        W42576  28.061  20.979   1.404  0.1607  0.1022  0.2363
    1W        W42577  13.481  29.408   8.586  0.1806  0.2818 -0.0152
    1W        W42578  11.743   5.376   8.094  0.4473 -0.1501  0.1017
    1W        W42579   5.805   1.269   0.332  0.4873  0.0022  0.1799
    1W        W42580   9.236   5.957   1.891 -0.1334 -0.0937 -0.1639
    1W        W42581   7.001  11.865   7.456 -0.3100 -0.1741  0.0481
    1W        W42582  21.824   3.254   2.640  0.0260  0.2079  0.0546
    1W        W42583  21.140   4.456   7.717 -0.0141  0.0449  0.2080
    1W        W42584  14.319  18.054   7.710 -0.0061  0.3689  0.1150
    1W        W42585  22.424  25.908   7.192  0.0151 -0.1509  0.1484
    1W        W42586  14.455  27.980   3.355 -0.2070 -0.1399  0.1163
    1W        W42587   6.310  17.442   7.611  0.2202 -0.3197 -0.4160
    1W        W42588  16.003   4.620   6.166  0.0318  0.0856  0.0105
    1W        W42589  27.924   6.837   2.342  0.1149  0.0304 -0.0148
    1W        W42590  26.896  28.837   2.139 -0.0173  0.1079  0.1875
    1W        W42591  19.730  27.032   9.090 -0.0447  0.2992  0.0068
    1W        W42592  15.340  23.143   2.206  0.0363 -0.0304  0.3315
    1W        W42593  27.848  17.075   9.121  0.1816 -0.2141 -0.0589
    1W        W42594   6.416   8.160   1.162  0.1747  0.0230 -0.0684
    1W        W42595   1.329   5.102   8.081  0.1102 -0.1233 -0.0877
    1W        W42596  10.732  19.285   1.389  0.0534  0.2509 -0.2269
    1W        W42597  12.474  16.620   9.254 -0.1763  0.1880  0.1690
    1W        W42598  10.766  28.593   8.649 -0.0544  0.0827 -0.2420
    1W        W42599  17.776  24.298   0.632 -0.2245 -0.0123 -0.0898
    1W        W42600  27.622   6.440   9.000 -0.0836  0.0007 -0.2088
    1W        W42601  16.619  24.633   2.725 -0.1961 -0.0375  0.1049
    1W        W42602   3.414   1.949   1.399 -0.4002  0.1463 -0.0560
    1W        W42603  25.476  12.707   7.504  0.0874  0.0519  0.2254
    1W        W42604  22.957  16.969   2.669  0.2621  0.0467 -0.0182
    1W        W42605   3.647   3.554   9.196  0.1865  0.2144 -0.2586
    1W        W42606   6.834  19.611   6.753 -0.1888 -0.3206 -0.0895
    1W        W42607  23.612  23.226   8.007 -0.0793 -0.1334  0.0562
    1W        W42608  28.062   6.217   8.722 -0.1437  0.3822  0.1524
    1W        W42609  28.195  26.069   7.243 -0.0277 -0.0526 -0.4107
    1W        W42610   8.380   2.250   1.769 -0.0430 -0.1211  0.4376
    1W        W42611  15.702  25.181   0.850 -0.0269  0.1277 -0.1087
    1W        W42612   4.875  30.217   7.847  0.2228 -0.2770 -0.0921
    1W        W42613   4.187   6.155   9.089 -0.0349 -0.0874 -0.1125
    1W        W42614   5.163   4.403   8.055  0.0374  0.3336 -0.1111
    1W        W42615   4.658   7.187   2.709 -0.1421 -0.3781  0.1293
    1W        W42616   0.049   0.219   0.868  0.0297 -0.0025 -0.1136
    1W        W42617  19.020   8.762   7.253  0.3737  0.0763  0.1396
    1W        W42618   7.044  15.843   2.267  0.0627  0.1562  0.0675
    1W        W42619   1.874   5.596   6.210 -0.1512 -0.0136  0.0390
    1W        W42620  21.775  15.549   5.910 -0.0262 -0.2221 -0.3259
    1W        W42621   9.244   3.040   8.232  0.0517  0.1350  0.0279
    1W        W42622  15.969  30.227   1.095  0.0445 -0.0109 -0.4336
    1W        W42623  27.110  13.009   8.784  0.2265 -0.1110 -0.3162
    1W        W42624  27.781   3.079   7.459 -0.1523  0.0753  0.2134
    1W        W42625  15.559  11.251   3.537 -0.2104 -0.0570 -0.1273
    1W        W42626  24.586  27.659   0.066 -0.0889  0.0813  0.0457
    1W        W42627  23.542  16.335   0.541  0.2411 -0.1999 -0.1781
    1W        W42628  14.895  17.900   8.855  0.1130  0.1549  0.0012
    1W        W42629   9.104  19.771   8.237  0.1419  0.2055 -0.2121
    1W        W42630   8.034   0.019   7.374 -0.2164  0.1642  0.0848
    1W        W42631  15.552  19.134   8.292 -0.3870  0.1586 -0.1268
    1W        W42632  12.720  17.142   8.427 -0.1706  0.1314 -0.1551
    1W        W42633   4.425  12.701   0.026 -0.1062  0.2849 -0.3542
    1W        W42634  16.931  17.787   6.817  0.0443  0.0603  0.0335
    1W        W42635   5.084  21.710   1.680 -0.0811 -0.1005  0.0521
    1W        W42636  21.585   6.269   7.082 -0.1093 -0.0539 -0.3607
    1W        W42637   4.620   2.125   9.069  0.0041 -0.0872  0.0876
    1W        W42638  16.013   7.779   5.764 -0.2502  0.3433 -0.0767
    1W        W42639   3.089  24.560   8.486  0.1950  0.2121  0.0301
    1W        W42640   7.384   9.512   0.181  0.0867 -0.1683 -0.2284
    1W        W42641  28.949   1.569   3.477 -0.0839 -0.2574  0.0128
    1W        W42642  28.539   4.882   9.031  0.5352  0.0574 -0.0444
    1W        W42643  23.953   8.698   1.204 -0.2982  0.4191 -0.1863
    1W        W42644   6.845  23.880   1.528  0.1684 -0.0482 -0.0384
    1W        W42645  19.328   9.076   6.452  0.1509  0.0115 -0.0354
    1W        W42646  29.024   7.949   7.103  0.2206 -0.2008  0.3269
    1W        W42647  25.676  14.196   1.029 -0.0999 -0.0955  0.0321
    1W        W42648  30.283   6.893   7.525  0.0057 -0.0378 -0.2509
    1W        W42649   8.993  19.201   0.958 -0.2279  0.0263  0.1465
    1W        W42650   1.391  22.705   2.006 -0.0832  0.7121 -0.0081
    1W        W42651  12.317  25.159   1.680  0.0577  0.2183 -0.3293
    1W        W42652  11.780  14.262   1.786 -0.2916 -0.1715 -0.1140
    1W        W42653  20.590  15.342   7.036 -0.1320 -0.1222 -0.2713
    1W        W42654  21.419  25.437   0.911 -0.2743  0.0936  0.1055
    1W        W42655  19.219  29.685   2.891  0.2782  0.3193  0.1265
    1W        W42656  27.014   9.413   1.417  0.2189  0.0601 -0.0114
    1W        W42657  12.290   1.275   1.506 -0.4098  0.0295 -0.1099
    1W        W42658  24.722   2.572   0.691  0.2263 -0.0229  0.2190
    1W        W42659  10.604  13.906   3.009 -0.1776  0.0131  0.3458
    1W        W42660   4.200   3.360   8.112  0.2749 -0.1433 -0.0567
    1W        W42661  14.981   1.968   7.802  0.0201  0.1793  0.0597
    1W        W42662   6.256  22.026   6.755  0.0797 -0.1930 -0.1078
    1W        W42663   1.119  25.312   8.518  0.0292 -0.2992 -0.1173
    1W        W42664  11.585  21.837   6.839 -0.1263 -0.3257  0.2465
    1W        W42665  24.129   4.428   7.560 -0.2346  0.1318  0.0740
    1W        W42666   2.879  24.667   7.296  0.1808  0.1922 -0.0223
    1W        W42667  15.917   4.167   9.137  0.0715  0.1108 -0.0081
    1W        W42668  18.370  13.404   1.742  0.1929  0.4178 -0.2267
    1W        W42669  14.858   3.119   1.665  0.0695 -0.2274  0.5051
    1W        W42670   9.417   9.173   7.771 -0.1989 -0.2279 -0.2053
    1W        W42671   4.031  14.452   1.912 -0.1175  0.0122 -0.2033
    1W        W42672   4.254   4.117   6.963  0.0464  0.0045  0.0016
    1W        W42673   5.407   2.006   2.191  0.0755 -0.3338  0.1440
    1W        W42674  18.049  10.550   1.393  0.1038  0.3696  0.3395
    1W        W42675  11.955  19.911   5.073  0.0470  0.1737  0.2136
    1W        W42676   2.525  13.252   7.596  0.1851  0.0619 -0.0134
    1W        W42677  21.754   4.236   0.916 -0.2489 -0.2108 -0.0422
    1W        W42678  24.612  12.360   6.269 -0.3174 -0.0828 -0.0843
    1W        W42679  11.275   7.774   7.808  0.3329  0.1260  0.1928
    1W        W42680  11.223  12.669   1.884  0.3060 -0.0581 -0.2412
    1W        W42681  17.699   0.513   2.256  0.0230 -0.4140  0.3043
    1W        W42682   9.469  21.287   5.899  0.1457 -0.2256  0.0797
    1W        W42683  10.293   1.269   3.225  0.0245 -0.0558 -0.1736
    1W        W42684   2.949   5.232   9.089 -0.1476  0.0869 -0.1982
    1W        W42685  26.229  11.939   7.770  0.2787  0.1349  0.1619
    1W        W42686  21.007  18.399   8.832 -0.0627 -0.0146  0.2646
    1W        W42687   8.909  16.846   1.591 -0.1820  0.0357 -0.3444
    1W        W42688  19.002  30.083   0.261 -0.2108 -0.0609 -0.0004
    1W        W42689   3.040  12.003   0.029  0.3018 -0.0887 -0.0376
    1W        W42690  20.162   6.039   7.930 -0.0462  0.1015 -0.3803
    1W        W42691  22.129   9.554   6.328 -0.0502  0.0983 -0.0339
    1W        W42692  20.875   8.648   8.470 -0.1907 -0.0410 -0.1033
    1W        W42693   7.344  17.727   6.925 -0.0209 -0.1308  0.0613
    1W        W42694  14.193   0.463   1.327  0.0023 -0.2199 -0.1081
    1W        W42695  15.139   4.579   0.217 -0.4482 -0.0849 -0.0270
    1W        W42696  16.930  19.467   2.216  0.3572  0.1016 -0.4344
    1W        W42697   2.847  15.977   7.650  0.0001  0.1866  0.1754
    1W        W42698  17.141   7.203   1.592  0.2576  0.0227  0.0964
    1W        W42699  14.032  16.227   1.215 -0.2486  0.1171  0.1698
    1W        W42700  21.304  13.503   7.248 -0.3418  0.2539 -0.3679
    1W        W42701   8.995  22.132   9.233 -0.2984 -0.1360 -0.1205
    1W        W42702  11.913  30.156   0.234 -0.1453  0.1441  0.0630
    1W        W42703  22.965  21.537   0.997 -0.3701 -0.1096  0.2927
    1W        W42704  28.792  19.461   8.668  0.1754  0.3847  0.0876
    1W        W42705  21.274  28.014   2.116 -0.0264  0.0612 -0.1575
    1W        W42706   2.529   1.409   2.117 -0.0608 -0.2999 -0.3972
    1W        W42707   5.057  13.741   1.010 -0.1962 -0.1778 -0.2424
    1W        W42708   5.331  23.135   2.680  0.3274 -0.1710  0.4000
    1W        W42709   2.212  11.174   7.112 -0.0488 -0.5456  0.2078
    1W        W42710   1.426   9.247   1.404  0.0397 -0.2272 -0.0760
    1W        W42711  11.713   8.316   0.793 -0.0334  0.0750  0.0235
    1W        W42712  17.371  14.018   7.274  0.2888 -0.2517 -0.5579
    1W        W42713  17.857   4.225   6.782 -0.0034 -0.1112 -0.1207
    1W        W42714  14.418  12.668   8.405  0.0817 -0.3521 -0.1809
    1W        W42715  15.757  13.301   7.979  0.0216  0.3070  0.0410
    1W        W42716   8.578  19.205   1.249  0.2878  0.0634 -0.0453
    1W        W42717   9.702  20.025   0.863 -0.0991 -0.1720  0.4138
    1W        W42718  29.001  17.385   8.034 -0.0924 -0.2479  0.2295
    1W        W42719  18.595   1.687   6.399  0.0424 -0.1325 -0.2199
    1W        W42720  11.529  11.921   7.728 -0.0708 -0.3968  0.0262
    1W        W42721   4.053   0.876   8.027 -0.0268  0.0142  0.0516
    1W        W42722   5.883   7.223   8.590  0.0077  0.1078  0.1324
    1W        W42723   8.528   6.863   7.440  0.0104  0.0855 -0.2725
    1W        W42724  22.818  13.856   8.397  0.2381 -0.2452 -0.2871
    1W        W42725   6.741  24.951   0.552  0.0444 -0.1868 -0.1158
    1W        W42726   0.893  24.716   6.599 -0.0718 -0.0292 -0.0147
    1W        W42727  16.455   4.624   2.684  0.1925  0.0019  0.2000
    1W        W42728  25.397   2.607   3.182  0.0728  0.2455  0.0909
    1W        W42729  27.596  29.589   8.173 -0.1483 -0.1193  0.0385
    1W        W42730   5.248   2.854   0.843  0.3117  0.0397 -0.0929
    1W        W42731  17.339  22.949   7.791  0.0885 -0.2010  0.0002
    1W        W42732  12.339   2.396   7.418  0.0051  0.0015 -0.0578
    1W        W42733   0.445  18.941   7.142 -0.2202  0.0108 -0.4764
    1W        W42734  29.762   0.472   0.105 -0.1304  0.0891  0.2629
    1W        W42735  13.061  14.778   0.629  0.3639  0.0615 -0.2066
    1W        W42736  12.199  22.413   7.769  0.3042  0.1042 -0.1536
    1W        W42737  21.002  25.718   0.710 -0.2017 -0.1381  0.0622
    1W        W42738  28.918   4.035   8.551 -0.0873  0.3054 -0.4501
    1W        W42739  28.255   5.757   7.583 -0.2709  0.0120  0.1697
    1W        W42740   6.757  24.623   7.828 -0.2666  0.2569 -0.2166
    1W        W42741  18.193  15.359   1.301  0.2697  0.0364 -0.0006
    1W        W42742   0.538  29.430   7.566 -0.0870 -0.2262  0.2123
    1W        W42743  15.432  14.470   0.090  0.1825  0.2625 -0.1537
    1W        W42744   0.631  27.281   0.809  0.1626 -0.0192  0.0115
    1W        W42745  28.035  22.468   6.999  0.0276 -0.1126  0.2148
    1W        W42746  25.135  24.260   6.829  0.0807  0.0856  0.0773
    1W        W42747   8.674   7.402   0.695  0.0877  0.3250 -0.1890
    1W        W42748  23.845   1.556   0.781  0.1716  0.0672 -0.0202
    1W        W42749   5.502  11.808   7.515 -0.1134 -0.0170  0.1695
    1W        W42750  17.445  26.041   1.807  0.1436  0.0680 -0.3366
    1W        W42751  26.125  20.509   7.076  0.0541  0.0103  0.2513
    1W        W42752  10.653  25.350   7.153  0.0763 -0.1434 -0.0824
    1W        W42753  29.284  15.690   7.466 -0.2010  0.1241  0.0748
    1W        W42754   2.570  29.180   2.204 -0.1087 -0.0717  0.2073
    1W        W42755  20.443  12.888   6.372  0.4788 -0.0116 -0.0573
    1W        W42756  22.056   9.859   0.662  0.0700 -0.0646 -0.1817
    1W        W42757  10.482  29.515   3.538 -0.0006 -0.1477 -0.0734
    1W        W42758  28.138   3.530   2.095  0.0646 -0.2869 -0.1505
    1W        W42759  10.886  28.832   0.254 -0.1271 -0.0321 -0.1201
    1W        W42760  26.220  21.448   1.690  0.1101 -0.0602  0.0958
    1W        W42761  15.867  27.520   2.408 -0.0777 -0.3203  0.3508
    1W        W42762  27.849  21.828   0.095  0.0813 -0.0034 -0.1087
    1W        W42763   7.226  22.768   2.262 -0.1564  0.0334 -0.0129
    1W        W42764  22.891   9.030   9.049  0.1785 -0.2700  0.0369
    1W        W42765  27.304   7.410   7.851  0.0861 -0.0503 -0.1287
    1W        W42766   3.386  25.922   3.028 -0.0966  0.0749 -0.0860
    1W        W42767  19.233   2.250   7.165 -0.2992 -0.5090 -0.2577
    1W        W42768   2.315  11.474   0.011  0.0179 -0.0811 -0.1015
    1W        W42769  25.341  24.272   8.862  0.2796 -0.2111 -0.1052
    1W        W42770  10.351  25.976   5.855 -0.1494  0.2053 -0.0695
    1W        W42771  30.256   8.582   0.894 -0.0542  0.0431 -0.0584
    1W        W42772   6.252  28.719   7.190 -0.0037 -0.4038  0.1596
    1W        W42773   7.589   6.869   7.323  0.2707  0.1779  0.0189
    1W        W42774  25.391   4.912   3.298  0.2745 -0.1378  0.1838
    1W        W42775  10.641   4.901   6.648  0.0979  0.4396 -0.2103
    1W        W42776  11.287  18.436   9.212  0.1303 -0.0327 -0.0081
    1W        W42777   8.017   7.717   7.727  0.0028  0.1234  0.2434
    1W        W42778  23.325  10.885   9.264 -0.0256  0.1434  0.1834
    1W        W42779  23.164  27.550   9.072 -0.0162  0.0479  0.0891
    1W        W42780  29.168  16.083   0.261 -0.0548 -0.0781  0.0223
    1W        W42781   5.699  17.271   0.073  0.1833  0.1373 -0.0320
    1W        W42782  23.328  29.487   8.606  0.1809  0.2235  0.1850
    1W        W42783  19.507   0.179   1.833 -0.0990  0.0674  0.4553
    1W        W42784  18.981  17.855   2.388  0.0791 -0.1266 -0.1306
    1W        W42785   1.797  14.709   0.496  0.0715  0.2416  0.0909
    1W        W42786  16.185   7.226   1.290 -0.0691  0.2914 -0.0365
    1W        W42787  11.669   0.019   3.442  0.0016 -0.2023  0.1403
    1W        W42788  25.852  28.183   2.687 -0.3697 -0.0587 -0.1498
    1W        W42789  24.862  11.846   1.572 -0.3868 -0.1533 -0.0961
    1W        W42790   0.601  12.535   0.972 -0.2903 -0.0885 -0.0228
    1W        W42791  14.248  12.237   8.242 -0.1480  0.0196  0.0104
    1W        W42792  25.473  16.227   1.785  0.0767  0.3823  0.1373
    1W        W42793  22.067  12.073   7.665  0.2691  0.0808 -0.2366
    1W        W42794  24.702   8.462   8.232 -0.0123 -0.0627 -0.3835
    1W        W42795   6.379   2.835   7.145 -0.3299 -0.0893  0.2391
    1W        W42796  17.078  12.287   2.771 -0.2997 -0.0696 -0.0031
    1W        W42797  26.286   2.544   0.891 -0.2175 -0.0469  0.0784
    1W        W42798   9.461  16.565   9.250 -0.3183  0.2465  0.1364
    1W        W42799  13.154   0.284   7.432  0.0251  0.3200  0.3152
    1W        W42800  29.829   8.521   6.452  0.0250 -0.0485  0.1095
    1W        W42801  25.293   2.892   3.768  0.0677  0.0094 -0.0641
    1W        W42802   2.577  27.847   1.030 -0.1641 -0.1735 -0.3177
    1W        W42803  10.956  29.569   3.648 -0.1846  0.0604  0.1358
    1W        W42804  19.126  15.758   2.398  0.0004  0.0394 -0.0627
    1W        W42805  27.227  17.994   0.517  0.0461  0.0137  0.0617
    1W        W42806  21.425   3.348   0.816  0.2106  0.1347  0.1080
    1W        W42807   9.618  28.181   7.790  0.2820 -0.2749 -0.1191
    1W        W42808   4.243   6.480   2.308  0.2245 -0.3152 -0.0998
    1W        W42809  11.886  16.443   7.477  0.0709  0.2889 -0.1445
    1W        W42810  11.374  20.367   0.219  0.2648  0.2016 -0.0051
    1W        W42811   2.592  26.880   3.464  0.1465  0.0862 -0.3157
    1W        W42812   1.049   9.000   1.175 -0.2098  0.1420 -0.1031
    1W        W42813   6.563  16.907   6.259 -0.2788 -0.0228  0.1041
    1W        W42814   1.637  27.135   8.838  0.0513  0.1179 -0.2396
    1W        W42815  12.312  15.696   8.482  0.5607  0.0203  0.1075
    1W        W42816  10.933   2.802   0.432 -0.4374 -0.1977 -0.4521
    1W        W42817  18.287  10.876   9.147  0.2193  0.0290 -0.1139
    1W        W42818   6.839  17.264   5.314 -0.0873 -0.1961 -0.0105
    1W        W42819  18.202  16.532   8.726 -0.0840  0.1782  0.1579
    1W        W42820   0.744   1.759   0.774 -0.0868  0.0086 -0.0548
    1W        W42821  16.705  18.518   1.164  0.1271 -0.1293 -0.1334
    1W        W42822   3.577   3.441   0.720 -0.0303  0.0259  0.0954
    1W        W42823   2.184   1.882   8.788 -0.0675 -0.1421 -0.1868
    1W        W42824   6.853  28.963   0.338 -0.0696  0.2300  0.1521
    1W        W42825   0.936  28.334   1.528 -0.1983 -0.1431  0.2431
    1W        W42826   9.556  16.172   1.449  0.1994  0.0769  0.0760
    1W        W42827   1.794   2.745   0.537  0.2144  0.5438  0.2083
    1W        W42828   1.104  28.789   2.908 -0.0673  0.0452  0.0192
    1W        W42829  25.239   2.555   2.279 -0.1890  0.1315 -0.0977
    1W        W42830   9.391  14.111   7.566 -0.1028  0.2899 -0.0517
    1W        W42831  12.550  15.967   9.227 -0.1894  0.1209  0.0468
    1W        W42832   4.324  15.191   0.996 -0.1812 -0.0601 -0.1072
    1W        W42833   7.354   0.326   0.283 -0.0042  0.0205 -0.0669
    1W        W42834   0.764  25.421   0.778  0.0469  0.1709 -0.0969
    1W        W42835  21.452  11.649   7.121  0.0802  0.0511  0.1608
    1W        W42836  20.847  14.304   0.847 -0.1701 -0.0457  0.3684
    1W        W42837   8.325   0.697   1.812 -0.0483  0.3773  0.3498
    1W        W42838  29.288  21.680   8.568  0.1090 -0.1168  0.1264
    1W        W42839  10.398   0.053   7.576 -0.1407  0.0140  0.0724
    1W        W42840  24.038  22.035   7.083 -0.1029  0.2005 -0.0101
    1W        W42841  21.023  12.532   2.572 -0.0951 -0.0751 -0.1117
    1W        W42842  26.639  23.302   7.082 -0.0022 -0.2770 -0.1058
    1W        W42843  28.799  18.558   9.144  0.3321 -0.0432  0.1506
    1W        W42844  21.223  10.429   2.613 -0.3219  0.0348 -0.1062
    1W        W42845  12.128  28.064   3.208 -0.0211  0.1550  0.0079
    1W        W42846  26.508  28.271   2.668  0.1944 -0.0331  0.2948
    1W        W42847   8.542   3.452   6.928 -0.0013  0.0752 -0.1246
    1W        W42848  15.984  10.123   1.374 -0.1119 -0.0487  0.0874
    1W        W42849   9.942  21.259   5.533  0.2548  0.0165 -0.2130
    1W        W42850   7.330   7.067   9.192  0.0346  0.1007 -0.0122
    1W        W42851   4.659  10.417   6.871  0.2127 -0.4224  0.0325
    1W        W42852  21.918   8.230   8.732 -0.0696  0.0897 -0.0758
    1W        W42853  18.502   4.530   0.070 -0.1888 -0.1146  0.0849
    1W        W42854   6.281   1.591   2.885 -0.2330 -0.2834  0.3124
    1W        W42855  11.700  11.985   2.246 -0.3085  0.1337  0.1409
    1W        W42856   1.118   2.466   6.986  0.0377 -0.0117  0.0774
    1W        W42857  27.697  29.048   0.341 -0.2890  0.1888 -0.0489
    1W        W42858   4.847  25.341   7.770 -0.0247 -0.0809  0.1196
    1W        W42859  25.729  24.094   8.251 -0.0180 -0.0619 -0.1485
    1W        W42860  28.923  28.707   0.734  0.1898 -0.3425  0.1168
    1W        W42861  16.304  27.260   2.199 -0.0449 -0.0870 -0.1326
    1W        W42862  24.952   8.878   2.059  0.1851  0.0162  0.0935
    1W        W42863  24.912   2.899   1.455  0.2927 -0.1010  0.0279
    1W        W42864  22.919   1.992   2.441  0.4006  0.1575  0.2714
    1W        W42865   8.393  10.403   9.011 -0.0018  0.2125  0.0670
    1W        W42866  23.175  26.148   8.467 -0.3682 -0.5375  0.1779
    1W        W42867  12.692   4.169   0.087 -0.2026  0.1166 -0.1436
    1W        W42868  12.472  11.066   8.866  0.0501 -0.1273  0.0048
    1W        W42869   2.408  23.803   2.258  0.1698 -0.0948 -0.1124
    1W        W42870   8.232  19.709   8.919  0.0050  0.1381  0.0890
    1W        W42871  11.959  18.022   2.119 -0.0088 -0.0167  0.0983
    1W        W42872  13.713  15.804   7.691  0.2775  0.2613 -0.0071
    1W        W42873  16.351  17.361   0.406 -0.0224  0.3563 -0.0191
    1W        W42874   9.990   8.682   0.765 -0.0954  0.0882 -0.3717
    1W        W42875  16.866  20.720   6.928 -0.4910  0.2290  0.1182
    1W        W42876  26.655  26.167   7.928  0.2738  0.3741  0.2059
    1W        W42877  22.674   6.694   7.701 -0.0432  0.0670  0.0984
    1W        W42878  23.072   8.915   7.265 -0.0543  0.1429  0.0375
    1W        W42879  23.063  15.988   1.100 -0.1929  0.2419  0.0509
    1W        W42880  21.994  27.966   0.061 -0.3115 -0.0079 -0.3255
    1W        W42881  27.524   1.640   9.247 -0.0768  0.1965 -0.1156
    1W        W42882  14.515   2.223   8.729 -0.0347  0.0210  0.1842
    1W        W42883  16.352  15.046   8.842 -0.0990 -0.0727 -0.0928
    1W        W42884   3.788  25.978   8.891  0.1448  0.0839 -0.3849
    1W        W42885  16.377  19.592   0.691  0.0226 -0.0337  0.0541
    1W        W42886  25.129  26.651   1.475 -0.2175  0.1051  0.0838
    1W        W42887  12.612  16.706   1.044  0.0278  0.2026 -0.1379
    1W        W42888   0.680  25.566   2.304 -0.1595  0.0950 -0.0324
    1W        W42889   7.490  14.486   0.863 -0.1020 -0.1178  0.5015
    1W        W42890   8.476  22.750   7.115  0.3546  0.1749  0.0950
    1W        W42891  19.834   6.525   0.448  0.3753  0.1008  0.0206
    1W        W42892  29.143   7.311   7.265  0.2169  0.2317  0.1704
    1W        W42893   5.317  21.169   7.473  0.2495 -0.2331  0.1355
    1W        W42894  24.042   8.400   6.179  0.0290  0.1110  0.1337
    1W        W42895  10.405   9.080   8.100 -0.1222  0.1835  0.1974
    1W        W42896  17.114  30.337   6.916  0.0270  0.0164 -0.2487
    1W        W42897  16.551  25.114   6.582  0.0039  0.0254 -0.2781
    1W        W42898  15.490  19.861   7.611 -0.1250 -0.0182  0.2847
    1W        W42899   3.382   4.353   7.965 -0.2088  0.0394 -0.3304
    1W        W42900  30.312   2.858   8.034  0.2551  0.0056 -0.0105
    1W        W42901  13.460  30.266   1.235  0.0222 -0.0597 -0.0454
    1W        W42902  27.751   5.825   0.904 -0.2823  0.0266  0.3815
    1W        W42903  22.353  12.115   1.411  0.1644  0.0989 -0.3288
    1W        W42904  18.433  20.477   8.496  0.2468 -0.0456 -0.2125
    1W        W42905  13.326  23.686   6.926  0.1722 -0.2647  0.0935
    1W        W42906   5.703  16.831   1.330 -0.0300  0.2192  0.3743
    1W        W42907  14.718  24.400   1.174  0.0604  0.1432 -0.4250
    1W        W42908  16.074   3.400   2.439 -0.1642  0.1594 -0.0263
    1W        W42909  16.552  22.534   0.092  0.4007  0.0260  0.1363
    1W        W42910  14.572  22.210   0.410 -0.1686  0.0973  0.2933
    1W        W42911  23.162  21.474   1.832  0.1605  0.1077  0.0613
    1W        W42912  14.011   0.175   0.916  0.1188  0.2204 -0.1910
    1W        W42913  27.643  19.636   7.522  0.2276  0.3912 -0.3834
    1W        W42914  16.773  16.270   7.518  0.1965  0.1368  0.4509
    1W        W42915  27.951  30.292   8.734 -0.0459  0.0172  0.1899
    1W        W42916   5.986  14.883   8.282 -0.0969 -0.1001 -0.2881
    1W        W42917   7.765  15.368   8.135 -0.3450  0.1982  0.2769
    1W        W42918   5.582   1.233   3.886  0.1960  0.2889 -0.2048
    1W        W42919   6.002  20.353   0.119 -0.2255  0.0658 -0.1390
    1W        W42920   5.378   1.889   3.050  0.2409 -0.1243 -0.3208
    1W        W42921   0.478   9.880   7.209  0.1768 -0.1231 -0.0565
    1W        W42922  16.941   3.703   1.382  0.1192  0.0610 -0.0730
    1W        W42923   6.641   1.575   1.298 -0.0046  0.1137  0.2162
    1W        W42924  18.541   0.991   1.168  0.1276 -0.1607  0.4475
    1W        W42925   4.102  26.401   2.506  0.0894 -0.1788  0.0501
    1W        W42926  26.310  14.575   7.234 -0.0322  0.0986 -0.1749
    1W        W42927  27.479   0.682   8.209 -0.3773  0.0925 -0.0736
    1W        W42928  20.345  18.893   6.541  0.1727 -0.3035  0.0651
    1W        W42929  29.774   3.148   0.633 -0.0002  0.0292  0.0677
    1W        W42930  13.494   4.297   0.199 -0.3224 -0.0442 -0.1172
    1W        W42931   3.266  24.756   9.007  0.1340 -0.1302  0.1176
    1W        W42932   0.555  22.385   7.257  0.0604 -0.0185 -0.0490
    1W        W42933  10.306  11.466   7.222  0.0096  0.2939 -0.2401
    1W        W42934   8.123  24.187   1.959  0.2610  0.2813 -0.1115
    1W        W42935   5.774  15.022   0.050  0.0616 -0.1785  0.1179
    1W        W42936  12.953  29.560   0.976  0.0319 -0.2307 -0.0507
    1W        W42937  26.780   7.452   1.741 -0.1323 -0.0472 -0.1256
    1W        W42938  27.787   5.883   1.468 -0.3606  0.0007 -0.0579
    1W        W42939   5.785   9.880   7.992 -0.0038  0.0138  0.0988
    1W        W42940  21.697   0.337   3.181  0.1576  0.2619  0.0682
    1W        W42941   5.753   8.598   2.673  0.4378 -0.1044 -0.0751
    1W        W42942   0.466  29.954   2.246 -0.0118  0.0312  0.0246
    1W        W42943  12.693  15.958   7.777 -0.0208  0.3364 -0.0904
    1W        W42944   7.050  25.865   8.380 -0.0135  0.0040  0.0277
    1W        W42945   6.485   6.324   0.580  0.0204  0.0819 -0.3192
    1W        W42946  12.158  24.410   8.793 -0.1093  0.1213 -0.0387
    1W        W42947   6.749   4.765   6.914 -0.1585 -0.1928 -0.0670
    1W        W42948  25.348  17.855   9.238  0.1182  0.2876  0.0130
    1W        W42949  17.521  23.468   6.492 -0.2079  0.0296  0.1920
    1W        W42950   0.829  10.520   2.895 -0.0040  0.0442  0.1699
    1W        W42951   8.228  12.642   8.015 -0.1666  0.1121  0.1040
    1W        W42952   8.356  13.434   7.372 -0.1903 -0.0876  0.0252
    1W        W42953   0.641   1.975   9.184  0.2629 -0.0114  0.0848
    1W        W42954   9.214  25.545   0.364 -0.2324  0.1689 -0.0353
    1W        W42955  22.885  12.690   7.682 -0.1954  0.4962 -0.1852
    1W        W42956  16.730  26.592   7.632  0.0151  0.0443 -0.0783
    1W        W42957   4.734  20.003   7.047 -0.1885  0.1419  0.3917
    1W        W42958   4.537   8.496   9.258  0.0076 -0.1512 -0.0677
    1W        W42959  11.249  21.532   9.116  0.1557  0.1514 -0.0580
    1W        W42960  21.885  17.245   2.775 -0.3086 -0.4632 -0.1036
    1W        W42961   8.021   4.152   8.460 -0.0345  0.0786 -0.0875
    1W        W42962   1.768  13.421   7.061 -0.1751  0.1831  0.2052
    1W        W42963  28.121  25.106   7.208  0.0068  0.2043  0.2394
    1W        W42964  22.448  10.553   8.129 -0.0211  0.2445  0.1157
    1W        W42965   0.908  11.252   7.590 -0.1514 -0.1223  0.0353
    1W        W42966   1.651   6.901   7.982 -0.2259  0.1031  0.2249
    1W        W42967   5.497  11.366   8.886 -0.1107 -0.6216  0.2551
    1W        W42968  21.890  11.353   7.927 -0.0352 -0.2070  0.0716
    1W        W42969   0.161   2.488   1.894  0.0142  0.1895 -0.2790
    1W        W42970   9.584  26.122   6.309 -0.3188  0.0610  0.1767
    1W        W42971  24.275  18.442   8.695 -0.0494 -0.4327  0.0406
    1W        W42972  11.818   4.862   0.434  0.1858 -0.0840 -0.4080
    1W        W42973  18.015   3.237   9.158 -0.1049  0.3293 -0.2904
    1W        W42974   8.516   8.127   2.022 -0.4503  0.0530  0.1281
    1W        W42975  10.852  28.065   1.644  0.0330 -0.0745 -0.1203
    1W        W42976  21.188  14.671   0.768 -0.0541  0.0461 -0.1207
    1W        W42977  11.556  29.495   6.231 -0.0370  0.0732 -0.0147
    1W        W42978  14.349  20.852   7.794 -0.5012 -0.0182  0.0636
    1W        W42979  16.811  29.842   7.896 -0.1059  0.2036 -0.0958
    1W        W42980  14.072   3.603   8.479  0.0633 -0.1036 -0.1841
    1W        W42981  11.692   3.318   2.388 -0.2243  0.1872  0.1751
    1W        W42982   0.815   5.188   0.035  0.3427  0.3583  0.1938
    1W        W42983   0.834   1.452   9.083 -0.2001  0.0425  0.1021
    1W        W42984  29.796   0.383   2.745  0.4218  0.0440 -0.2186
    1W        W42985  24.803  16.614   6.403  0.2553  0.2607 -0.3276
    1W        W42986  16.414   9.306   5.999  0.1138 -0.1935 -0.0985
    1W        W42987  27.318   9.296   0.483 -0.1722  0.2978 -0.3465
    1W        W42988  23.020   5.543   0.833 -0.0312 -0.4045  0.1204
    1W        W42989  18.111   0.277   8.722 -0.0002 -0.0079 -0.1068
    1W        W42990  19.367  26.572   8.903  0.0346 -0.1036 -0.2564
    1W        W42991  11.217  25.961   7.740  0.2097  0.0879  0.2818
    1W        W42992  12.140  17.613   9.000 -0.0046  0.3084 -0.2950
    1W        W42993  20.118  24.598   6.801 -0.4353  0.0389 -0.0684
    1W        W42994  16.434  11.817   9.251 -0.2699 -0.2108  0.1646
    1W        W42995   3.189  24.585   6.623 -0.1242 -0.3548 -0.0332
    1W        W42996  15.707   2.480   6.271 -0.1105  0.1427  0.2996
    1W        W42997  25.551  26.927   1.533 -0.1911  0.1709  0.1878
    1W        W42998  17.082   3.598   7.100  0.0378  0.1581  0.0821
    1W        W42999   5.501  12.278   8.306 -0.0133  0.1030  0.0791
    1W        W43000   3.679  23.379   1.069  0.2466 -0.0694  0.1814
    1W        W43001  20.673  12.977   1.099 -0.0166 -0.1149 -0.0600
    1W        W43002  14.020  21.504   3.028 -0.2562  0.0557 -0.1535
    1W        W43003   5.350  19.345   8.851 -0.3221 -0.0645  0.1359
    1W        W43004  23.431  17.184   1.398 -0.0873  0.1637 -0.1428
    1W        W43005  19.179  29.798   8.875  0.0972  0.4644 -0.0831
    1W        W43006   4.058   1.172   7.437  0.0668 -0.1226 -0.1488
    1W        W43007   3.385  15.693   0.665  0.1034 -0.0131 -0.4209
    1W        W43008   4.131   8.165   1.777  0.1312 -0.1004 -0.0860
    1W        W43009   3.799  26.727   2.310 -0.1501  0.0042  0.3284
    1W        W43010   3.353   5.483   9.013  0.3066 -0.2440 -0.1372
    1W        W43011   6.620   7.928   7.568  0.1726  0.1523  0.3071
    1W        W43012  16.804   7.176   6.157  0.0554 -0.1742  0.2968
    1W        W43013  18.270  18.876   2.453 -0.2104  0.0792 -0.0797
    1W        W43014   2.768  17.017   8.476  0.0695  0.3053 -0.2126
    1W        W43015   6.445   4.686   1.121 -0.2898 -0.1469  0.3185
    1W        W43016   0.737  20.902   7.184 -0.0977  0.2894 -0.1322
    1W        W43017  16.320  14.167   2.798 -0.0906  0.1042 -0.2506
    1W        W43018  22.596   9.201   7.872  0.1153 -0.0883  0.2826
    1W        W43019  18.873   9.757   7.707 -0.4172 -0.0163  0.3239
    1W        W43020   6.553   7.356   7.035 -0.1575 -0.0485 -0.0283
    1W        W43021   4.604  28.844   1.974  0.0195 -0.1887 -0.0827
    1W        W43022  25.924   0.229   7.680  0.1355 -0.1391  0.2792
    1W        W43023   9.454  23.190   1.157 -0.0680 -0.1619  0.0563
    1W        W43024   2.544  17.410   8.778 -0.1321 -0.1591 -0.0411
    1W        W43025  10.914  15.677   1.221  0.1415 -0.0428  0.1149
    1W        W43026  11.891   6.126   5.480  0.0022  0.2986  0.2250
    1W        W43027  16.739   3.942   7.643 -0.0236  0.2766 -0.1461
    1W        W43028  16.074   2.949   0.669 -0.2224  0.3337 -0.0367
    1W        W43029  24.303  19.941   8.629  0.1768 -0.4268 -0.2785
    1W        W43030  25.841  16.026   7.356 -0.5640  0.0203 -0.4711
    1W        W43031  17.787  16.244   8.706 -0.1115  0.0196  0.0804
    1W        W43032  14.605  21.285   9.266 -0.1374 -0.1497 -0.1285
    1W        W43033   3.188  26.128   9.151  0.0631 -0.1852 -0.0514
    1W        W43034  27.467   6.186   1.247 -0.1835 -0.0886  0.2888
    1W        W43035   7.443  25.961   1.081 -0.0132 -0.1814  0.2745
    1W        W43036   8.553  24.263   6.368 -0.0980 -0.1040 -0.0359
    1W        W43037  12.471  10.732   3.782 -0.4099  0.1742 -0.1254
    1W        W43038   3.176  24.092   1.973 -0.1226 -0.2152 -0.1752
    1W        W43039  22.677  25.095   1.272  0.1133  0.0429 -0.0957
    1W        W43040  18.236  22.564   8.219 -0.0281 -0.1880  0.0576
    1W        W43041  26.118   8.802   6.425 -0.2400  0.1087 -0.0094
    1W        W43042   4.874  16.672   7.040  0.3473 -0.0116  0.0482
    1W        W43043  25.867   6.779   7.597 -0.3531 -0.1005  0.1150
    1W        W43044   7.758   3.521   9.138 -0.3119  0.1774 -0.3109
    1W        W43045   7.470  29.190   7.246  0.0270  0.0960 -0.0261
    1W        W43046  24.173  15.605   1.810 -0.2706 -0.2012  0.2514
    1W        W43047  27.562  19.055   6.799  0.0329  0.3105  0.2114
    1W        W43048  22.648  29.936   1.273  0.3087 -0.0595  0.2132
    1W        W43049   8.903  10.499   0.657  0.1561 -0.3436 -0.3586
    1W        W43050   7.734  10.582   1.624 -0.1546  0.4303 -0.0050
    1W        W43051  25.540  26.363   2.867 -0.0348 -0.2925  0.0311
    1W        W43052   9.327  27.860   7.501 -0.0551 -0.1236 -0.2454
    1W        W43053   1.693   0.548   9.253  0.0501 -0.1398  0.0817
    1W        W43054   9.476   2.368   8.276  0.2823  0.0576  0.2410
    1W        W43055  16.002  13.888   0.571  0.1161  0.0583  0.1539
    1W        W43056  27.175   9.603   8.746  0.1157 -0.0969 -0.0991
    1W        W43057  26.060   1.911   8.096  0.0687 -0.2208  0.1754
    1W        W43058  23.659   8.357   0.441 -0.1706 -0.1120 -0.1836
    1W        W43059  18.865  26.484   7.019 -0.0683  0.1148 -0.1276
    1W        W43060  21.371   8.842   1.585  0.0376  0.1055  0.2267
    1W        W43061  24.111  23.423   7.207 -0.0306 -0.1167 -0.2471
    1W        W43062  12.531   7.873   0.761 -0.0087  0.0679  0.0724
    1W        W43063  21.071  25.161   6.851  0.1371 -0.2423 -0.0248
    1W        W43064  19.012  26.001   0.709 -0.1277 -0.3113  0.0051
    1W        W43065   7.157   6.482   7.962 -0.0930 -0.0238 -0.1822
    1W        W43066  12.201  29.149   7.529 -0.2862 -0.1657 -0.0340
    1W        W43067   1.254  19.498   8.127  0.0589 -0.1455  0.2936
    1W        W43068  10.108  27.144   1.260 -0.3590  0.1059 -0.2016
    1W        W43069   4.073  11.210   7.067 -0.3592 -0.1514 -0.3969
    1W        W43070  14.548   8.327   8.654  0.0056 -0.1039 -0.0692
    1W        W43071  20.464   9.848   1.475  0.3055  0.0725 -0.1137
    1W        W43072  25.664   4.752   2.213 -0.0710  0.1429  0.1272
    1W        W43073   2.403  28.243   2.775 -0.1748  0.1855  0.1372
    1W        W43074  21.733   5.926   9.043 -0.0404  0.2552 -0.0427
    1W        W43075  26.096   9.519   1.485 -0.3570 -0.0221  0.1966
    1W        W43076  13.748   4.455   8.126  0.2666 -0.2057 -0.0329
    1W        W43077  24.903  28.599   6.445  0.0638  0.0226 -0.2900
    1W        W43078  15.562  28.557   7.614 -0.1109  0.5050 -0.1637
    1W        W43079  14.246  17.521   2.350  0.2395 -0.1443 -0.3479
    1W        W43080   4.264  28.815   2.310 -0.0062 -0.1885  0.0154
    1W        W43081   5.431   6.091   1.396 -0.3518  0.1531 -0.0170
    1W        W43082  24.436  25.380   8.818 -0.1476 -0.0250  0.1961
    1W        W43083  11.072  26.983   7.171 -0.0892  0.0695  0.0536
    1W        W43084  28.810  16.196   6.771  0.0732 -0.2515  0.1213
    1W        W43085  18.713  24.338   0.928 -0.1619 -0.2608 -0.2723
    1W        W43086  22.325  16.218   8.760 -0.3285  0.1919  0.3018
    1W        W43087  22.866  19.668   6.410  0.2413  0.1284 -0.1398
    1W        W43088   3.714  26.818   9.145  0.1471 -0.1122 -0.1453
    1W        W43089  15.848  24.661   2.199  0.0564 -0.1490 -0.1248
    1W        W43090  20.060  17.525   0.982 -0.0246  0.1392 -0.1072
    1W        W43091   5.549  28.602   0.131 -0.2949 -0.0848 -0.1534
    1W        W43092  16.251  12.347   1.871 -0.1315 -0.0179 -0.4089
    1W        W43093   2.475  17.241   1.333  0.0416 -0.0164  0.1543
    1W        W43094  19.061   3.970   0.373  0.1147 -0.1948 -0.0049
    1W        W43095  17.218   4.163   8.843  0.1320  0.3443  0.1049
    1W        W43096  13.778  28.129   3.287 -0.1016  0.2789  0.2433
    1W        W43097  23.496  27.365   1.764 -0.0918 -0.2407  0.0187
    1W        W43098  22.220  15.545   0.069  0.1773  0.1149 -0.0897
    1W        W43099   1.806  26.631   8.856  0.1502  0.1344 -0.2260
    1W        W43100  16.472  10.555   2.071 -0.2652 -0.0316  0.4994
    1W        W43101  14.581  29.515   8.022  0.2390  0.0587  0.0263
    1W        W43102  17.712   2.418   7.873  0.0793 -0.0251  0.2835
    1W        W43103  15.169   6.572   7.857  0.0826 -0.0340  0.1037
    1W        W43104   9.010   0.568   3.385 -0.0246 -0.2703  0.3726
    1W        W43105  29.739   5.082   0.117  0.0778 -0.3918  0.2286
    1W        W43106   7.283  10.393   8.402  0.1781 -0.1431  0.3092
    1W        W43107   7.514  14.023   8.817 -0.0237 -0.0433  0.1168
    1W        W43108   0.352   1.906   6.925 -0.2004  0.4260 -0.0091
    1W        W43109  14.622  26.688   7.974 -0.1481 -0.2110 -0.2806
    1W        W43110  24.544  13.777   8.786 -0.0430 -0.1005  0.1552
    1W        W43111  20.540  12.592   6.953  0.0609  0.0217  0.0329
    1W        W43112  21.770  29.182   2.620 -0.2373  0.0666  0.2488
    1W        W43113  28.927  23.281   7.970 -0.0509 -0.1017  0.0053
    1W        W43114  23.669  30.105   0.593 -0.2450  0.2420 -0.2807
    1W        W43115  15.593  24.549   7.473 -0.1268  0.1491 -0.1200
    1W        W43116  28.484  13.939   9.261  0.0848  0.1233  0.2315
    1W        W43117  24.193   2.311   8.888  0.1078 -0.0292  0.2375
    1W        W43118   6.826   8.077   8.730  0.1893 -0.1642 -0.0249
    1W        W43119   4.630   7.344   1.701 -0.1311  0.4974  0.0232
    1W        W43120  28.084   2.937   7.811  0.1073 -0.1793  0.1233
    1W        W43121   0.912  14.863   6.994 -0.5815  0.0610  0.0640
    1W        W43122   9.728  18.924   5.847  0.0431 -0.3199 -0.0302
    1W        W43123   5.599  22.871   6.453 -0.1282  0.0413 -0.0095
    1W        W43124   1.111   2.998   1.011 -0.1394 -0.0376  0.1132
    1W        W43125  27.216   1.803   8.032  0.0795  0.1861 -0.1803
    1W        W43126  20.121  28.479   1.377 -0.0067 -0.0642  0.0535
    1W        W43127  17.991  27.750   1.548 -0.0938  0.2017 -0.1828
    1W        W43128   3.476  27.216   8.981  0.2045 -0.0150 -0.0530
    1W        W43129   0.762   6.361   8.210 -0.1163 -0.0766  0.1418
    1W        W43130   0.920  30.343   0.598  0.0170 -0.1420  0.1553
    1W        W43131  23.776  13.538   1.923 -0.0541  0.1608  0.0610
    1W        W43132  10.725  28.217   7.907  0.0689  0.1509 -0.3705
    1W        W43133  24.716  19.683   0.786 -0.2691 -0.4472 -0.1131
    1W        W43134  17.752   3.058   0.691 -0.2396 -0.1012 -0.0413
    1W        W43135  19.710  22.167   6.859 -0.1559 -0.1076 -0.1766
    1W        W43136   6.245   1.733   9.017  0.0189 -0.0225 -0.0459
    1W        W43137   1.997  13.631   1.635  0.2260  0.0637  0.1940
    1W        W43138  30.300  17.033   7.851  0.2588 -0.2571 -0.3183
    1W        W43139  16.931  26.957   6.845 -0.2382 -0.0371 -0.0088
    1W        W43140  22.822  10.913   7.046 -0.0157  0.2391  0.2872
    1W        W43141  22.463  24.678   6.753  0.3139 -0.2154  0.0633
    1W        W43142  25.845  12.116   7.239 -0.0563 -0.0525 -0.0608
    1W        W43143  22.490   0.208   1.779 -0.3119 -0.3528  0.2695
    1W        W43144  10.365  10.883   3.414  0.2630 -0.0453  0.1291
    1W        W43145  23.631  27.542   2.687 -0.0947  0.4939 -0.1036
    1W        W43146  13.017   9.678   7.520  0.0411  0.2598  0.2038
    1W        W43147   1.758   7.665   2.176  0.4989  0.0893 -0.3023
    1W        W43148   0.864   4.568   0.988 -0.1387 -0.0686 -0.2635
    1W        W43149  27.900   6.595   7.543 -0.1967  0.4191  0.0987
    1W        W43150  25.695  15.196   0.089 -0.1396  0.0446 -0.1399
    1W        W43151   5.385   9.976   8.377  0.3031 -0.0883 -0.0291
    1W        W43152   2.073   1.634   1.268 -0.3807 -0.0850  0.2841
    1W        W43153  12.228  28.728   7.295 -0.2913  0.1251 -0.0592
    1W        W43154  23.625  21.185   7.208 -0.4161  0.1183  0.0052
    1W        W43155  27.790   5.510   2.481  0.0579  0.0695  0.0246
    1W        W43156  24.590  17.364   1.194  0.0552 -0.0254 -0.3488
    1W        W43157   5.030   5.466   7.336 -0.0429 -0.0282 -0.1453
    1W        W43158   2.118   1.211   2.451  0.5101  0.0153 -0.2196
    1W        W43159  23.077  11.553   0.574 -0.2668 -0.0160  0.0818
    1W        W43160  12.254  14.112   8.893  0.1331  0.4027  0.0967
    1W        W43161  21.260   6.502   0.311  0.1309 -0.2228  0.0817
    1W        W43162  16.189   5.244   8.601  0.1162  0.1299  0.0042
    1W        W43163   4.488   1.667   8.993  0.0347  0.2068  0.3311
    1W        W43164  13.402  20.263   8.003 -0.1137  0.2092  0.1624
    1W        W43165   4.871  29.645   8.714 -0.1612  0.0185  0.2857
    1W        W43166  11.337   3.552   7.801  0.1076 -0.0471 -0.0779
    1W        W43167  12.756  11.618   8.015  0.0567 -0.0758 -0.2268
    1W        W43168  22.304  26.713   7.717 -0.1296 -0.2625 -0.1774
    1W        W43169   1.247   4.240   2.173 -0.2463 -0.1442 -0.1250
    1W        W43170   5.740  26.520   8.049 -0.1183 -0.2833 -0.0599
    1W        W43171  23.107  18.068   8.713  0.1197  0.1572  0.1200
    1W        W43172   1.054  11.799   1.012  0.3602 -0.0135 -0.0430
    1W        W43173  24.621   5.851   7.630  0.0882  0.1806 -0.0904
    1W        W43174   6.808   7.840   0.733  0.2396  0.1669  0.1354
    1W        W43175  13.743   9.784   0.014 -0.1824  0.1190  0.3376
    1W        W43176  16.967  21.430   7.231 -0.2167 -0.1951  0.0004
    1W        W43177  27.273   4.957   7.929  0.3673 -0.0616 -0.1425
    1W        W43178   8.378  26.802   8.121  0.0459  0.1676 -0.0683
    1W        W43179  13.112   3.968   1.444 -0.1957 -0.3434 -0.1905
    1W        W43180  10.805   6.230   0.546 -0.2612  0.1066 -0.2648
    1W        W43181   1.286  19.592   0.152 -0.0122  0.2877 -0.1741
    1W        W43182   7.739  21.848   6.280 -0.0585  0.3326 -0.1909
    1W        W43183  20.843  15.047   0.734  0.0636 -0.1060  0.2465
    1W        W43184  20.366   6.002   8.436  0.3040  0.3278 -0.1844
    1W        W43185  14.187   4.662   7.979 -0.0901 -0.0302  0.0610
    1W        W43186  26.022   2.909   7.033  0.0722  0.4185 -0.0222
    1W        W43187  17.384   4.386   2.525 -0.0446  0.1213 -0.3900
    1W        W43188  28.333  10.766   2.379  0.0057 -0.1832 -0.1390
    1W        W43189  19.796  27.578   1.576 -0.0469 -0.2106  0.1915
    1W        W43190   4.525  11.876   8.954 -0.4187 -0.1905 -0.0782
    1W        W43191  25.569  11.211   6.089  0.1746 -0.2407 -0.0065
    1W        W43192  16.420  22.378   8.818  0.1941  0.0554 -0.1341
    1W        W43193  28.751  23.026   1.719  0.0806 -0.1081 -0.0975
    1W        W43194  25.047  20.888   7.331  0.2472 -0.0082  0.0499
    1W        W43195  21.330   9.326   0.517  0.3311 -0.0550  0.3806
    1W        W43196   4.135  14.410   9.172  0.1409  0.3137  0.3600
    1W        W43197   3.839  28.180   6.945 -0.0691 -0.1559 -0.1528
    1W        W43198   5.601  18.016   6.612 -0.4231  0.2619  0.3727
    1W        W43199  20.020  11.210   7.579  0.0633 -0.0152 -0.0407
    1W        W43200  20.020   2.131   1.306 -0.0061 -0.2407  0.1344
    1W        W43201  22.868  25.839   1.403  0.2342  0.0312 -0.0645
    1W        W43202   8.177  29.801   1.076 -0.2927  0.0205  0.0956
    1W        W43203  10.538   9.700   7.489  0.0944  0.0146  0.1576
    1W        W43204  28.010   2.762   0.234  0.3077  0.1403 -0.3523
    1W        W43205   4.879  27.552   1.863  0.0411  0.1024 -0.0463
    1W        W43206  20.346   0.675   8.592  0.0385  0.1928 -0.0139
    1W        W43207  18.425  29.501   6.485  0.2254 -0.1630 -0.0419
    1W        W43208  25.837  13.171   7.302 -0.0201 -0.1744  0.1497
    1W        W43209   0.358  17.747   0.267 -0.1844  0.0399  0.5279
    1W        W43210  10.975  23.865   7.007 -0.5533  0.0546  0.0305
    1W        W43211   4.886  26.668   0.198 -0.0154  0.0774 -0.2388
    1W        W43212   1.885  29.191   1.942  0.0230 -0.0892  0.1089
    1W        W43213   4.954  17.455   8.155 -0.2845  0.1468 -0.2337
    1W        W43214  19.530   0.034   8.868  0.0900 -0.0543 -0.2137
    1W        W43215   7.013   8.783   7.773 -0.0911  0.0392  0.1478
    1W        W43216  19.359   3.813   7.149 -0.1966  0.0909  0.2702
    1W        W43217  26.978  18.066   1.383  0.1246 -0.1455 -0.0145
    1W        W43218   4.468   3.937   3.052 -0.1278 -0.4711  0.2952
    1W        W43219   4.837  22.747   1.747 -0.2006  0.0924  0.2878
    1W        W43220   9.991   4.044   2.213 -0.0916 -0.1005  0.1142
    1W        W43221   5.373  30.069   7.307  0.1159 -0.2163 -0.4543
    1W        W43222  22.488  10.084   8.501 -0.0429 -0.2535 -0.1063
    1W        W43223  20.271   1.477   6.980 -0.1139  0.0656  0.3554
    1W        W43224  15.391   5.850   1.343  0.1755  0.0317  0.0054
    1W        W43225  22.649   8.543   8.786  0.2349  0.3496 -0.0676
    1W        W43226   1.076   1.351   2.708  0.0517  0.3321 -0.1406
    1W        W43227  29.787  28.381   1.093 -0.0295 -0.0321  0.0384
    1W        W43228  24.319  20.606   0.952 -0.1343 -0.0719 -0.1760
    1W        W43229  28.815  17.869   7.712  0.1293 -0.2367 -0.1765
    1W        W43230  14.535   2.073   1.600  0.1147  0.1226 -0.1159
    1W        W43231  24.369  24.163   6.608 -0.2212 -0.3489 -0.2440
    1W        W43232  21.085  22.506   8.811 -0.0622  0.3367  0.1012
    1W        W43233   1.744  12.186   0.438 -0.0583 -0.1346  0.0667
    1W        W43234  26.053  15.774   0.478 -0.3331 -0.0114  0.2477
    1W        W43235  23.790   9.775   0.101 -0.2247  0.3326  0.0102
    1W        W43236  18.352   9.214   8.640  0.0222  0.0851  0.0563
    1W        W43237  28.779  19.925   0.148  0.2072 -0.0256 -0.1147
    1W        W43238   1.562  15.243   7.272 -0.1188  0.0694 -0.1918
    1W        W43239  13.681   0.365   0.605 -0.2262  0.2168  0.0793
    1W        W43240   9.788   0.907   0.096 -0.0757  0.0994 -0.1108
    1W        W43241  27.647  14.074   1.174  0.1243  0.1574  0.3072
    1W        W43242   9.394  17.252   0.143  0.0201 -0.3115 -0.3716
    1W        W43243  24.466   1.018   8.414 -0.2031 -0.1396  0.0345
    1W        W43244  21.089  16.527   0.423  0.1612  0.0955  0.3016
    1W        W43245  12.326  11.159   7.315 -0.0408 -0.2584  0.0852
    1W        W43246   4.252  27.621   2.502 -0.0186 -0.1199  0.3434
    1W        W43247  13.874  22.569   6.812 -0.2422 -0.2826  0.1619
    1W        W43248  18.346   8.108   8.781 -0.2443  0.0789 -0.1249
    1W        W43249  13.081   1.059   6.770 -0.0913 -0.0994  0.0307
    1W        W43250   0.887  16.501   1.810 -0.1367 -0.1955  0.3019
    1W        W43251   3.838  18.817   9.251  0.1828  0.1872  0.1171
    1W        W43252   2.920   3.254   7.828  0.2713  0.0811  0.1565
    1W        W43253  28.164   5.845   1.141 -0.1761 -0.0716  0.2097
    1W        W43254  24.188  15.663   9.222  0.0969 -0.1728  0.2501
    1W        W43255   6.307  16.021   6.449  0.0822  0.1649  0.1421
    1W        W43256  18.747   8.029   6.712 -0.1737  0.1627 -0.0351
    1W        W43257   3.088   6.025   2.589  0.3583 -0.0880 -0.1276
    1W        W43258  26.305  19.360   7.440 -0.0881  0.0551  0.0536
    1W        W43259  26.009  29.194   8.440 -0.0929 -0.0487 -0.1937
    1W        W43260  18.574  19.852   7.707 -0.0936 -0.1944 -0.1331
    1W        W43261  12.181  11.112   4.099 -0.0264  0.0349  0.1791
    1W        W43262   6.811  15.367   9.235 -0.0451  0.5857  0.0350
    1W        W43263   7.061   0.021   8.501  0.1509  0.0919 -0.0476
    1W        W43264  14.290  29.747   0.419  0.2129 -0.3099 -0.0465
    1W        W43265  23.527  22.522   7.099  0.1322 -0.2386  0.0594
    1W        W43266  14.822  13.385   2.057  0.0328  0.2168  0.0553
    1W        W43267  20.406   7.547   2.124 -0.1426  0.0165  0.6298
    1W        W43268  15.965  20.100   5.987 -0.0172 -0.1399  0.1177
    1W        W43269   8.606  28.496   1.324  0.0168 -0.0888  0.2397
    1W        W43270  18.546   6.538   2.192 -0.2523 -0.1533  0.2821
    1W        W43271  20.152  13.415   7.333  0.1175  0.1016 -0.1465
    1W        W43272   2.853  21.560   6.369  0.1210 -0.0405 -0.1380
    1W        W43273   7.494  15.174   1.503  0.1918 -0.2810  0.0323
    1W        W43274  15.110  27.823   9.237 -0.3157  0.0850 -0.0271
    1W        W43275  11.733   7.590   6.836 -0.0951 -0.0741 -0.2157
    1W        W43276  18.983  10.281   8.408  0.0277 -0.3723 -0.2956
    1W        W43277   2.122  13.277   1.168 -0.1392  0.1750 -0.2492
    1W        W43278   2.087  10.240   0.317  0.2516 -0.1831  0.1633
    1W        W43279   0.682  12.597   7.761 -0.0501  0.1850  0.1316
    1W        W43280  14.171  29.215   2.258 -0.0409  0.2241 -0.0847
    1W        W43281  17.031  29.016   2.513 -0.3283 -0.1194  0.3023
    1W        W43282  15.749   3.838   2.147 -0.1955 -0.1025  0.3526
    1W        W43283  16.889  20.356   7.282  0.2166 -0.0668 -0.1342
    1W        W43284  11.035  17.630   0.497 -0.0475  0.1672 -0.0230
    1W        W43285  29.779  18.189   0.384  0.1969 -0.0696 -0.1157
    1W        W43286  25.593  20.289   7.818 -0.0446 -0.1828  0.0328
    1W        W43287  14.206  30.324   1.425  0.0215  0.3034 -0.3162
    1W        W43288  17.886   6.803   8.046 -0.1462  0.0180 -0.2119
    1W        W43289  10.164   0.139   2.876 -0.1359  0.0837  0.1447
    1W        W43290  21.335  22.485   0.014  0.2979  0.1417  0.1934
    1W        W43291   2.456  21.264   7.601  0.0384  0.0115  0.3244
    1W        W43292  30.168   5.242   2.902 -0.0633 -0.3168 -0.1782
    1W        W43293  29.034  30.199   6.700  0.0741 -0.2276 -0.1863
    1W        W43294   9.594  25.093   8.910 -0.0770  0.0907  0.2414
    1W        W43295  19.581  20.681   7.011 -0.2364 -0.2291  0.1863
    1W        W43296   4.732  18.634   9.025  0.0742  0.3200  0.0624
    1W        W43297  28.533   6.278   0.203  0.3091 -0.0149 -0.0974
    1W        W43298   5.282  26.951   6.723 -0.1619  0.3693  0.0973
    1W        W43299   3.000  18.764   1.781 -0.0646  0.0476  0.1450
    1W        W43300  13.755  26.752   0.274  0.0221  0.1094 -0.2401
    1W        W43301  23.658  24.576   6.679  0.0538 -0.0501  0.0093
    1W        W43302  26.265  17.994   9.056 -0.0099 -0.0083  0.1425
    1W        W43303  21.654  22.626   8.882 -0.1535  0.0673  0.1678
    1W        W43304  30.278  27.369   0.090  0.2357  0.2477  0.1743
    1W        W43305  15.490   1.924   1.429 -0.0733 -0.1805  0.1761
    1W        W43306   1.610   3.720   0.641 -0.0711  0.3651  0.3619
    1W        W43307  10.219   8.611   2.049 -0.0552 -0.0850  0.1248
    1W        W43308  10.644  17.578   2.354  0.1711  0.0182 -0.1596
    1W        W43309  18.017  20.174   6.203  0.2246  0.1180 -0.0499
    1W        W43310  11.529   5.332   6.102 -0.0592  0.0120 -0.1170
    1W        W43311   5.611  26.307   0.687  0.0298  0.1150 -0.2769
    1W        W43312  18.058   8.184   0.462 -0.0036  0.2428 -0.1519
    1W        W43313  13.795   4.024   9.214 -0.5883  0.0820  0.0035
    1W        W43314  10.157  21.157   0.338  0.1189 -0.1008  0.1067
    1W        W43315   3.517  17.707   6.739  0.1761  0.0598  0.0115
    1W        W43316  18.351  17.869   1.643 -0.1605  0.3212 -0.3176
    1W        W43317   8.007   6.041   2.242  0.0317  0.1851  0.0055
    1W        W43318  18.064   8.294   6.733  0.2262  0.2457  0.1235
    1W        W43319  22.203   8.652   8.579  0.0489  0.1109  0.0444
    1W        W43320  11.706  23.528   1.350 -0.0030  0.0582 -0.1733
    1W        W43321  22.338  15.222   8.096 -0.0167  0.0605  0.2640
    1W        W43322  23.165   0.618   7.373  0.0080  0.2168  0.0311
    1W        W43323   1.587  15.793   7.279 -0.0499 -0.1981  0.0886
    1W        W43324  21.085  14.579   8.874  0.0881  0.0498 -0.1486
    1W        W43325   6.506  18.596   5.670  0.1522  0.3016 -0.1221
    1W        W43326  22.311   4.266   7.090  0.0878 -0.1912 -0.1904
    1W        W43327  26.124  28.663   1.786  0.0806  0.4828 -0.1493
    1W        W43328  12.961  29.778   2.655  0.1263 -0.1350  0.0815
    1W        W43329  14.678  22.655   6.853  0.2273  0.0272  0.0733
    1W        W43330  26.186  10.393   1.735 -0.1672 -0.0347  0.1584
    1W        W43331  25.293   5.777   0.808 -0.0254 -0.1423 -0.2241
    1W        W43332   4.380  12.056   1.351  0.0824 -0.0962 -0.2807
    1W        W43333  11.912  12.371   0.081  0.1821  0.3450 -0.0956
    1W        W43334  18.958   1.894   2.548  0.0559 -0.0492 -0.1132
    1W        W43335  10.619  30.093   1.600 -0.1828  0.0196  0.0337
    1W        W43336  21.147  26.866   1.558 -0.1880  0.0892  0.1434
    1W        W43337  27.927   2.295   3.504 -0.0406  0.2005 -0.4401
    1W        W43338   6.029  22.833   6.209  0.1146  0.0326  0.0501
    1W        W43339  11.365   2.386   6.828  0.2312 -0.0297  0.0446
    1W        W43340   8.611  28.010   8.065  0.0379 -0.0583 -0.1622
    1W        W43341  17.188  21.857   6.482 -0.3418  0.1608  0.0614
    1W        W43342  21.385  29.704   1.890 -0.1080  0.2255  0.4184
    1W        W43343  12.190  11.951   2.278 -0.1792  0.2886  0.0230
    1W        W43344   2.860  10.894   8.437 -0.2630  0.0299  0.1606
    1W        W43345   4.271  12.064   0.820 -0.0633  0.4237 -0.0206
    1W        W43346  22.314   6.837   3.163 -0.0121 -0.1286  0.1596
    1W        W43347  20.340   8.697   6.231 -0.0130  0.2192 -0.0559
    1W        W43348  22.754  22.605   0.400 -0.3421 -0.4202 -0.1583
    1W        W43349   0.644   6.036   1.982 -0.2472 -0.1544 -0.2244
    1W        W43350  11.123   7.653   8.274  0.0426 -0.0691  0.0317
    1W        W43351  26.370  16.804   1.197  0.0389 -0.2982  0.0653
    1W        W43352   8.001  17.684   8.552 -0.0203  0.0748 -0.1117
    1W        W43353  23.893   0.357   1.435 -0.3384 -0.1096 -0.1301
    1W        W43354  19.837  22.240   0.989 -0.2404  0.4396 -0.2028
    1W        W43355  17.971  15.543   0.803 -0.0694 -0.1616  0.2983
    1W        W43356  30.203  20.285   0.852 -0.1318  0.3859  0.1207
    1W        W43357  23.809  27.776   1.808  0.0818  0.0088 -0.0764
    1W        W43358  12.073  18.295   8.266 -0.0592  0.1454 -0.1892
    1W        W43359  24.561  15.347   1.431 -0.2310  0.0996  0.1025
    1W        W43360  20.378   9.491   6.534  0.0557 -0.3459 -0.2578
    1W        W43361  25.110  26.043   1.322 -0.3861 -0.1082  0.1895
    1W        W43362   1.844  18.015   8.888  0.2145  0.0296  0.2321
    1W        W43363   3.303  29.309   3.353 -0.0685  0.3323 -0.1088
    1W        W43364   0.842  20.115   6.705  0.0229  0.2781  0.0770
    1W        W43365  26.938  28.660   7.430  0.0785  0.2511 -0.1398
    1W        W43366  19.558   5.487   2.226  0.1078  0.0737 -0.3221
    1W        W43367   5.016  25.647   0.278 -0.0438  0.0132 -0.0921
    1W        W43368  17.214   9.335   9.253  0.0453 -0.1220  0.0327
    1W        W43369   9.684   1.991   7.671  0.0706  0.0348 -0.0897
    1W        W43370  25.296  25.495   3.304 -0.1255  0.0847  0.0949
    1W        W43371   4.942  14.184   7.415 -0.0103 -0.3284  0.1113
    1W        W43372  10.364  15.950   8.823  0.0615  0.1555 -0.0068
    1W        W43373  13.027   2.280   1.670 -0.2968 -0.2019 -0.0136
    1W        W43374  25.377  30.232   1.665  0.0254 -0.1578  0.1836
    1W        W43375   0.668  16.539   8.648 -0.1910 -0.2078 -0.1200
    1W        W43376  22.275  28.269   8.943  0.0151 -0.2308  0.1000
    1W        W43377  27.526   9.632   0.188  0.1410 -0.0110  0.0139
    1W        W43378   3.025  15.204   7.052 -0.0380  0.1332  0.1827
    1W        W43379  25.951  12.690   7.333 -0.0236 -0.1550  0.1041
    1W        W43380  21.302  18.112   8.346  0.1280 -0.1883  0.0997
    1W        W43381  10.519  22.786   8.611  0.0073 -0.1562  0.2288
    1W        W43382   9.320   1.999   0.533  0.0284 -0.0619 -0.0403
    1W        W43383  10.693  20.376   8.861  0.3984  0.1428  0.0666
    1W        W43384  25.180   2.681   0.917 -0.2056  0.3577  0.0736
    1W        W43385  24.665  29.584   9.018 -0.0902  0.1705  0.1880
    1W        W43386  14.091  23.018   7.854 -0.1730  0.1564  0.2486
    1W        W43387  26.254  27.866   0.133 -0.1882  0.1377  0.0697
    1W        W43388  26.026  10.830   7.065  0.0662 -0.2341  0.0595
    1W        W43389  18.061  30.086   9.265 -0.1953  0.0202 -0.1722
    1W        W43390  16.784  14.223   2.370  0.0867  0.1708  0.1272
    1W        W43391   0.207  29.132   1.541 -0.0574 -0.2761 -0.0345
    1W        W43392  10.495  15.334   1.296  0.0291 -0.1260  0.1372
    1W        W43393  27.199  12.792   7.393 -0.1765  0.0352 -0.2089
    1W        W43394  29.098  25.427   1.111  0.2515  0.2491 -0.1743
    1W        W43395  30.082  15.525   8.699  0.0061  0.0204 -0.0639
    1W        W43396   3.200   6.505   7.055  0.1139  0.4928 -0.1395
    1W        W43397   5.974  30.130   1.994 -0.1354  0.2085  0.1775
    1W        W43398   0.730  19.338   8.241  0.1344  0.0839  0.4405
    1W        W43399   2.165  21.979   6.530 -0.1814 -0.1575  0.2638
    1W        W43400  10.513   7.507   8.379 -0.1648  0.0628  0.1273
    1W        W43401  23.308  22.617   8.248  0.1883  0.0839  0.0006
    1W        W43402  11.007  19.049   1.710  0.1084  0.1678  0.2667
    1W        W43403   3.904  25.949   7.105 -0.1236  0.2116  0.0431
    1W        W43404  18.798  16.633   0.392  0.1322 -0.2529  0.2649
    1W        W43405  21.030  19.677   7.430 -0.4557 -0.0562 -0.0235
    1W        W43406  24.529  24.903   9.068  0.1221 -0.2578 -0.0344
    1W        W43407  28.170   7.243   2.031 -0.0719 -0.2387 -0.3496
    1W        W43408   7.117  27.919   8.885  0.1945 -0.1636  0.0632
    1W        W43409  17.191  20.074   7.941  0.1843 -0.0529 -0.1518
    1W        W43410  22.202  25.242   8.531 -0.0305 -0.1266 -0.1248
    1W        W43411  16.939   8.275   0.402  0.1131  0.1055 -0.3239
    1W        W43412  26.145   0.199   0.499 -0.0558 -0.1522  0.2201
    1W        W43413  11.841  18.387   6.011  0.0316  0.3552 -0.0369
    1W        W43414  19.085   2.877   1.149  0.1205 -0.0057  0.1986
    1W        W43415  21.481  22.518   5.815  0.2602  0.2089 -0.2443
    1W        W43416  26.879  13.560   1.550 -0.1138 -0.0330  0.0806
    1W        W43417  30.164   1.773   1.586 -0.1452  0.0691  0.1841
    1W        W43418   1.473  30.004   2.472 -0.0411  0.1324  0.2225
    1W        W43419  16.129  28.836   7.267 -0.0608 -0.2690  0.1889
    1W        W43420  24.433  20.290   1.738  0.0611 -0.2465 -0.0756
    1W        W43421  26.686   9.046   7.009 -0.0909  0.0034 -0.2740
    1W        W43422   2.855   5.457   6.532  0.1582 -0.1225  0.1728
    1W        W43423  15.543  15.930   0.703 -0.0154  0.0060  0.1119
    1W        W43424  11.677  13.160   7.443  0.2844  0.0488 -0.1612
    1W        W43425  19.823  20.651   7.751 -0.2174 -0.1182 -0.4379
    1W        W43426  14.892  25.622   1.907  0.0606  0.3658  0.3962
    1W        W43427  28.301   6.674   1.162  0.1817 -0.2325  0.1142
    1W        W43428   5.824   5.272   7.384 -0.0972  0.0055  0.2953
    1W        W43429  30.266  24.154   1.146  0.1852 -0.0791  0.0686
    1W        W43430   4.674  22.648   6.843  0.1887  0.2460  0.1050
    1W        W43431   4.833  11.962   8.441 -0.0088 -0.2566 -0.2662
    1W        W43432  12.898  22.993   7.515 -0.0110 -0.3989  0.3589
    1W        W43433  23.407  16.330   1.014 -0.2057 -0.0496 -0.0376
    1W        W43434  21.345  19.618   0.550  0.2429 -0.3609 -0.0971
    1W        W43435  25.989  17.334   6.537  0.0989 -0.0200  0.2727
    1W        W43436   1.462  29.611   8.824 -0.3486  0.1077 -0.0638
    1W        W43437   2.747  25.967   8.985  0.2621 -0.1571  0.3074
    1W        W43438  15.459  27.020   9.067 -0.1376  0.1664  0.1574
    1W        W43439  13.833   3.311   8.062  0.0555 -0.1351 -0.1299
    1W        W43440   8.668   6.854   9.201  0.0310 -0.1122 -0.0253
    1W        W43441   6.706   6.147   8.025  0.0554  0.3051 -0.3471
    1W        W43442  26.962   7.707   0.439  0.3425 -0.2370  0.1264
    1W        W43443  13.672  13.118   2.497  0.0164 -0.3114 -0.0106
    1W        W43444  13.652   2.010   9.205 -0.0046 -0.1175 -0.0057
    1W        W43445  12.434  17.853   6.846  0.2498  0.0195  0.1713
    1W        W43446  16.671  26.396   0.047  0.0091 -0.1817  0.2087
    1W        W43447  22.239  25.343   7.422 -0.2829 -0.0585 -0.0046
    1W        W43448  24.394   4.337   0.735  0.1946  0.0146 -0.0474
    1W        W43449  11.528  15.069   2.951 -0.1745  0.3327 -0.2721
    1W        W43450  17.746  18.410   0.338  0.0803  0.0342 -0.0474
    1W        W43451  23.606  15.823   6.946 -0.4169 -0.2050 -0.1694
    1W        W43452  22.369  15.383   1.491  0.2236  0.0578  0.1529
    1W        W43453  16.905  24.727   2.288  0.0252  0.1119  0.0315
    1W        W43454   1.443  20.351   8.862  0.0905  0.1432  0.0821
    1W        W43455  22.072  18.520   8.551  0.2271 -0.0366 -0.2594
    1W        W43456   6.732  19.524   1.244  0.3440 -0.1515 -0.0741
    1W        W43457  28.306  16.894   1.515 -0.1103 -0.2765  0.0524
    1W        W43458  11.862   8.597   1.894  0.2661 -0.1919 -0.1751
    1W        W43459  19.833  29.721   2.166  0.1024 -0.0593 -0.1492
    1W        W43460  23.410   6.555   1.838  0.0749  0.2536 -0.0615
    1W        W43461   2.580   5.039   0.611 -0.0924  0.2298  0.0902
    1W        W43462  14.818   0.852   9.024 -0.2354 -0.2057 -0.2284
    1W        W43463  12.386  18.688   6.807  0.1333  0.2101  0.1254
    1W        W43464   2.893  10.524   7.080  0.0188 -0.0892  0.2957
    1W        W43465   6.337  11.669   9.226 -0.1155 -0.0611 -0.3545
    1W        W43466   2.160   6.422   7.252  0.0610  0.3032 -0.0136
    1W        W43467  18.832  27.773   0.497 -0.3888 -0.1215 -0.3352
    1W        W43468  17.759  28.783   2.090 -0.0747  0.2014  0.2295
    1W        W43469   1.113   2.147   0.737 -0.2464 -0.0046 -0.1792
    1W        W43470  25.336  14.828   0.244  0.1725 -0.1308 -0.2642
    1W        W43471   0.458  26.273   2.966 -0.2553  0.1402  0.0631
    1W        W43472  22.408   1.646   9.069 -0.0410  0.2043  0.1141
    1W        W43473  16.891  17.469   8.367  0.1299 -0.2460 -0.1633
    1W        W43474  23.913   6.325   1.906  0.3481 -0.0947 -0.2231
    1W        W43475  21.678   3.419   1.192 -0.2982 -0.3738  0.0326
    1W        W43476  12.767   9.404   7.838  0.1962  0.1527  0.4172
    1W        W43477   1.209  12.502   7.744 -0.1914  0.0443 -0.2264
    1W        W43478  14.991  28.832   0.595 -0.0096  0.0677  0.0349
    1W        W43479  19.631   2.820   0.334 -0.0178 -0.0350  0.0840
    1W        W43480   7.098   2.465   3.520 -0.1598  0.5198 -0.2848
    1W        W43481   8.418  21.950   8.534 -0.2327 -0.0026 -0.0589
    1W        W43482  19.620  21.632   6.916  0.0085  0.4635  0.0644
    1W        W43483  19.740  19.729   1.337 -0.0807  0.0065 -0.0029
    1W        W43484   4.063  26.626   6.615  0.1122 -0.4767 -0.3074
    1W        W43485  22.696   8.521   6.547  0.0652 -0.0635  0.0722
    1W        W43486  18.610  12.031   1.896 -0.0766 -0.0079  0.1205
    1W        W43487   4.947   3.963   7.809  0.0528 -0.2190 -0.0816
    1W        W43488  13.027  12.617   7.409 -0.1644 -0.2983  0.0068
    1W        W43489  16.591   1.692   8.340  0.1890  0.0164  0.0427
    1W        W43490   2.966   8.632   8.493  0.1076  0.2829  0.1346
    1W        W43491   1.660  16.159   1.641  0.0432  0.0437 -0.0414
    1W        W43492  26.288  16.599   8.546  0.0076 -0.1589  0.0226
    1W        W43493  16.371  17.968   1.515 -0.4153  0.1842 -0.1111
    1W        W43494  25.924  16.540   0.293  0.0713 -0.0059 -0.2932
    1W        W43495   9.026   3.105   1.786  0.0336 -0.0570 -0.2427
    1W        W43496  15.984  11.875   3.060  0.0601 -0.0836 -0.1912
    1W        W43497  10.490  12.224   8.639  0.2163  0.2212  0.0537
    1W        W43498  11.664   0.989   2.081  0.1262  0.0113  0.1868
    1W        W43499  15.247  17.502   1.500  0.0407 -0.0050  0.2302
    1W        W43500  26.706  22.280   8.707 -0.3893 -0.0876 -0.0267
    1W        W43501   4.659   4.943   7.747  0.2184  0.1299  0.0537
    1W        W43502   6.085  28.817   2.060 -0.0852  0.1144 -0.2345
    1W        W43503  26.511  22.021   6.777  0.2521 -0.0453 -0.0170
    1W        W43504   7.465  29.579   8.200 -0.0461 -0.1419  0.2627
    1W        W43505  18.595  17.933   6.302 -0.1795  0.1104 -0.1475
    1W        W43506  29.110   9.501   1.340 -0.0987 -0.2135 -0.0889
    1W        W43507  17.256   5.547   1.998 -0.0062  0.2104 -0.0127
    1W        W43508  28.368  26.612   9.033 -0.1873 -0.0631  0.1007
    1W        W43509   0.245   0.798   0.918  0.0423 -0.1754 -0.1373
    1W        W43510   6.090   0.890   0.224  0.1783 -0.0891 -0.0212
    1W        W43511  10.159  12.197   8.254  0.0370 -0.2014  0.3317
    1W        W43512  22.899  24.400   2.488 -0.1918  0.2156 -0.1569
    1W        W43513  25.614  26.826   2.149 -0.1367 -0.0147  0.0831
    1W        W43514  22.138   2.150   1.806  0.0037 -0.1894 -0.3612
    1W        W43515   4.605   3.788   8.170  0.0141 -0.3278 -0.1290
    1W        W43516   2.468  10.085   0.671 -0.0736 -0.1472  0.0370
    1W        W43517   3.389   3.856   0.932  0.2159  0.0096  0.0257
    1W        W43518  24.730   8.926   8.592 -0.4836  0.0145  0.0445
    1W        W43519  22.963  26.859   2.555  0.1373  0.3546  0.0018
    1W        W43520   0.627  13.117   8.046  0.1209  0.1685  0.0067
    1W        W43521  22.109  16.961   2.442 -0.1914 -0.2934  0.0080
    1W        W43522  17.155  15.644   7.898 -0.1685  0.0863 -0.2485
    1W        W43523   7.753  26.790   8.786 -0.0862  0.1017  0.0009
    1W        W43524  22.701  28.949   7.094 -0.0882 -0.0255  0.2783
    1W        W43525  12.067  26.634   6.647  0.0198  0.2688 -0.0899
    1W        W43526  12.026  17.308   1.561 -0.1117 -0.1197 -0.0376
    1W        W43527   6.555  15.421   6.719 -0.1978  0.1029 -0.4264
    1W        W43528   5.054  11.013   1.141  0.0954  0.0117 -0.0998
    1W        W43529  19.299  11.484   1.602  0.3168  0.0559  0.1173
    1W        W43530  26.949   5.342   1.279  0.0839 -0.1555 -0.0928
    1W        W43531  19.384   3.347   7.346  0.1621  0.0031  0.0278
    1W        W43532  17.828  16.600   9.066  0.0034  0.0798 -0.0966
    1W        W43533  30.019   3.249   3.395  0.2600  0.1721 -0.3012
    1W        W43534   5.504  24.365   3.077 -0.0095 -0.2972 -0.1123
    1W        W43535  24.485  17.701   2.366 -0.0875  0.2180  0.2739
    1W        W43536   9.322  11.891   2.383 -0.0952 -0.0197  0.1156
    1W        W43537  28.229  23.334   1.243  0.1301 -0.0768  0.0308
    1W        W43538  22.447  29.929   6.764  0.0941  0.0133  0.0429
    1W        W43539   3.388  15.661   6.965 -0.1448 -0.0765  0.1375
    1W        W43540  26.616   1.411   3.452  0.1371 -0.3350 -0.0940
    1W        W43541   2.279   3.301   1.260 -0.2386  0.0299  0.2139
    1W        W43542  28.041   5.518   3.029 -0.1546 -0.0572  0.0122
    1W        W43543  18.585  10.569   8.817  0.3328 -0.0936 -0.2335
    1W        W43544   1.597  26.730   1.143 -0.0308  0.3132 -0.0096
    1W        W43545  11.775  26.175   2.249 -0.0773  0.0098  0.0555
    1W        W43546  25.735  12.993   7.970  0.2998  0.0341 -0.1250
    1W        W43547  28.714  28.301   8.427 -0.0101  0.0093 -0.1125
    1W        W43548  16.261  26.735   2.505 -0.0592  0.0423  0.1790
    1W        W43549  26.462   8.577   1.645  0.0571 -0.2153  0.0845
    1W        W43550   8.255  18.881   0.385 -0.0093  0.2674  0.1295
    1W        W43551   8.462   9.992   1.935  0.2154 -0.2464 -0.1821
    1W        W43552   5.704  19.477   8.524  0.0349 -0.3386  0.0506
    1W        W43553  17.596   4.442   9.176  0.3828 -0.2259 -0.1846
    1W        W43554  17.881   3.683   8.396  0.4727  0.2247 -0.0780
    1W        W43555  14.231  19.899   6.319 -0.1282 -0.0232 -0.0336
    1W        W43556  19.020  28.514   8.362 -0.1937 -0.1041 -0.3941
    1W        W43557  28.931  15.927   8.830 -0.0881 -0.1150  0.1792
    1W        W43558  21.122  20.965   1.627  0.0447 -0.3707  0.2293
    1W        W43559  24.135   9.866   6.904  0.1152  0.1509  0.1168
    1W        W43560  29.260   5.556   2.107 -0.0629 -0.1510  0.0326
    1W        W43561  24.174  21.326   5.796 -0.0956  0.0535  0.0027
    1W        W43562  24.525   6.756   6.396  0.0010  0.2972 -0.0744
    1W        W43563   7.338  16.253   0.808  0.0538  0.2305 -0.0803
    1W        W43564  17.753   4.068   8.835  0.2775  0.3012 -0.1824
    1W        W43565  26.220   6.499   8.679 -0.5543  0.5370 -0.2203
    1W        W43566  19.052   0.667   0.409  0.0704  0.0336  0.2391
    1W        W43567   7.693  18.636   7.722 -0.1051  0.4613  0.0320
    1W        W43568  21.738  14.605   0.886 -0.0811  0.0267 -0.1176
    1W        W43569  19.091  16.346   0.723  0.0056 -0.0812  0.5174
    1W        W43570  18.766   6.979   7.596 -0.2132  0.0945 -0.2607
    1W        W43571   8.009  19.504   6.048 -0.0238  0.0408  0.2564
    1W        W43572  26.076  21.564   9.000  0.0938  0.1535 -0.1073
    1W        W43573  12.800  27.859   1.498 -0.1117  0.0632  0.1532
    1W        W43574   8.524   7.932   9.101  0.0797 -0.0839  0.0359
    1W        W43575  26.241  29.310   3.419  0.0354 -0.1253 -0.3010
    1W        W43576  17.331  27.787   7.655 -0.0857 -0.1377  0.1805
    1W        W43577  19.389  15.914   0.202  0.0518  0.1370  0.0047
    1W        W43578  21.070  15.948   7.707  0.3718 -0.0962 -0.2034
    1W        W43579   8.602   2.082   0.411 -0.1731 -0.0254 -0.0203
    1W        W43580   2.812   6.891   6.944 -0.1709  0.1799  0.3120
    1W        W43581  17.833  12.853   2.137 -0.0725  0.1836  0.0552
    1W        W43582  24.744  19.790   8.458  0.1505 -0.2752 -0.2957
    1W        W43583   7.243   1.162   0.993 -0.1695  0.2364  0.2803
    1W        W43584  21.483   2.409   2.434  0.0039 -0.1016  0.0363
    1W        W43585  24.144   9.905   6.348  0.1488  0.2643 -0.0816
    1W        W43586  15.632   0.688   7.242  0.3235 -0.3039 -0.4467
    1W        W43587  14.928  11.681   8.677  0.3531 -0.0089  0.1533
    1W        W43588  13.371   8.255   7.310  0.0432  0.3354 -0.0864
    1W        W43589  19.785  23.425   1.178  0.2198 -0.2139  0.0852
    1W        W43590  13.759  21.789   2.722 -0.2451  0.0881 -0.0291
    1W        W43591   1.818  11.412   2.298 -0.1536  0.0359  0.2304
    1W        W43592  24.988  27.476   1.370 -0.4596  0.0742 -0.2152
    1W        W43593   9.664   5.444   1.344 -0.1208 -0.1478 -0.1330
    1W        W43594   2.172   4.506   8.712  0.0103  0.1522  0.2507
    1W        W43595  15.157   6.544   0.648 -0.1011  0.1564 -0.0156
    1W        W43596  29.703  10.699   6.256  0.3684 -0.0866  0.0191
    1W        W43597  28.927  27.431   8.478  0.0154  0.0846  0.1838
    1W        W43598  12.533  25.847   8.428  0.2110  0.2360 -0.1322
    1W        W43599  24.785  20.422   6.784 -0.0304 -0.0348 -0.0594
    1W        W43600   6.997  18.814   7.853 -0.0881  0.0848 -0.2669
    1W        W43601  24.871  25.417   0.190  0.0252  0.1334  0.3672
    1W        W43602  16.610   4.107   8.072  0.4034  0.0893  0.2376
    1W        W43603  13.979   9.631   8.322  0.1721 -0.0573  0.0141
    1W        W43604  19.882  25.960   0.727  0.0206  0.0556 -0.1844
    1W        W43605   5.614  11.030   0.967  0.1914 -0.3154 -0.0046
    1W        W43606  16.847   7.997   8.528 -0.1189 -0.1585 -0.0058
    1W        W43607  26.240  15.582   8.721 -0.1143  0.1676 -0.2360
    1W        W43608  27.231  13.894   7.067  0.0554  0.1416 -0.3714
    1W        W43609   5.205  19.327   7.869 -0.0718 -0.3098  0.1907
    1W        W43610  16.469  14.049   1.961 -0.0602  0.0651 -0.1526
    1W        W43611  28.409  23.985   7.445  0.1733 -0.0494  0.1662
    1W        W43612  14.070  16.648   8.744  0.0937  0.1238  0.1861
    1W        W43613   2.028  27.447   3.373  0.1074  0.0899 -0.1443
    1W        W43614  28.452   0.679   1.044 -0.0068  0.1976  0.1825
    1W        W43615   0.298  28.418   0.096 -0.0973 -0.2167  0.1112
    1W        W43616  23.825   1.112   6.901 -0.0455  0.3164 -0.2256
    1W        W43617  23.276  19.181   8.418  0.0273 -0.4543 -0.0035
    1W        W43618  22.734  25.273   3.012 -0.0187  0.4209 -0.0672
    1W        W43619  17.616  12.532   9.099 -0.2550 -0.1353 -0.1300
    1W        W43620  22.510  26.172   1.987 -0.0259  0.2261 -0.1465
    1W        W43621  16.528  10.055   7.994 -0.0200  0.2028 -0.2083
    1W        W43622  15.003  25.499   7.797 -0.2497 -0.2274  0.0634
    1W        W43623   5.750  23.348   0.553 -0.2626  0.0261 -0.1635
    1W        W43624  27.468  23.379   7.794 -0.1547  0.0126 -0.3732
    1W        W43625  18.065   8.066   1.372 -0.0472  0.1409 -0.1020
    1W        W43626   3.411   0.032   0.020  0.1015 -0.0470 -0.1284
    1W        W43627   4.040   8.868   8.036  0.1350  0.0385  0.3868
    1W        W43628  11.973  28.866   6.783  0.0009  0.1099 -0.3105
    1W        W43629   6.121  13.844   1.715 -0.1590 -0.1941 -0.1866
    1W        W43630  16.110   7.927   8.655 -0.1290 -0.1895 -0.2058
    1W        W43631   1.861  29.602   0.327 -0.1708 -0.1408 -0.0842
    1W        W43632  11.075  20.521   6.827  0.1743  0.1943 -0.3533
    1W        W43633   7.727   0.690   1.563  0.0318 -0.0572  0.2306
    1W        W43634  22.292  22.754   0.333  0.2712  0.0156  0.3445
    1W        W43635   1.513  27.393   3.132 -0.0114 -0.1163 -0.0488
    1W        W43636  13.649   0.206   9.268 -0.0862  0.0080 -0.2085
    1W        W43637  20.493  23.693   7.680 -0.1271 -0.0343  0.1897
    1W        W43638  21.061  15.078   2.106  0.3550 -0.1082  0.1079
    1W        W43639  10.632  22.547   1.235 -0.1232  0.1797  0.0197
    1W        W43640   7.498  20.226   6.337 -0.0518  0.4074 -0.0379
    1W        W43641  10.543  23.226   6.996  0.0197 -0.0568 -0.1576
    1W        W43642  14.456  23.533   6.262 -0.1438 -0.1841 -0.0246
    1W        W43643   4.628  28.400   1.634 -0.0360 -0.0180 -0.2450
    1W        W43644   1.811  10.730   0.616 -0.2316 -0.0144  0.1763
    1W        W43645   7.018  12.748   1.399 -0.1778 -0.0584  0.0532
    1W        W43646  29.986  12.551   0.867  0.2233  0.1202  0.0063
    1W        W43647   0.175  24.125   8.084  0.1030 -0.2289 -0.1112
    1W        W43648  16.780   8.435   1.393 -0.2060  0.1594  0.2285
    1W        W43649  19.572  23.339   7.611  0.0908 -0.1481  0.0975
    1W        W43650  23.601   4.824   3.155  0.1023 -0.2548 -0.0174
    1W        W43651   6.733   8.734   6.802 -0.0230 -0.0514 -0.4435
    1W        W43652  26.926  13.226   8.064  0.0021 -0.1484 -0.3109
    1W        W43653   5.949  10.140   2.042 -0.0377 -0.0088 -0.1198
    1W        W43654  23.581  10.032   1.915  0.1678  0.4693  0.0696
    1W        W43655  16.642   6.811   6.593  0.0185 -0.0228  0.0708
    1W        W43656  20.580   2.106   1.486 -0.2604 -0.0980 -0.2099
    1W        W43657  28.052   1.753   0.057 -0.2165  0.0766 -0.2264
    1W        W43658  17.946   1.926   1.089 -0.0027  0.0938 -0.2094
    1W        W43659   5.198  27.421   1.115 -0.0375 -0.0283 -0.0501
    1W        W43660   5.573  21.628   1.382  0.0222  0.0321 -0.1148
    1W        W43661  10.291  15.501   7.931  0.3485 -0.2076 -0.3797
    1W        W43662  19.140   1.421   2.726  0.0304  0.0051  0.2038
    1W        W43663  19.349  24.254   7.485  0.1592  0.2040  0.1245
    1W        W43664  13.696  11.941   1.166  0.0829  0.0429 -0.2818
    1W        W43665  22.488  22.936   8.010  0.0504  0.0919 -0.3126
    1W        W43666  18.520  11.582   7.121  0.1562  0.0582  0.1428
    1W        W43667  25.881  12.782   1.327 -0.0710  0.0550 -0.2098
    1W        W43668   6.861  14.331   1.613 -0.1770 -0.2698 -0.1463
    1W        W43669   2.161   4.884   7.405 -0.0771 -0.1715  0.1868
    1W        W43670  20.857   4.846   7.931  0.2659 -0.1033 -0.1458
    1W        W43671   2.675  28.614   9.157  0.0292 -0.3278 -0.1577
    1W        W43672   1.131  25.757   2.158 -0.2401 -0.1011 -0.1273
    1W        W43673   2.910   2.250   7.342  0.2350 -0.0326 -0.2154
    1W        W43674   7.573   5.280   0.130 -0.4701 -0.3618  0.2134
    1W        W43675   3.037  11.249   7.384 -0.0186  0.0473  0.4802
    1W        W43676   6.052   3.334   3.330 -0.5402 -0.4596  0.1193
    1W        W43677  20.527  13.161   6.925 -0.0187 -0.2146  0.1256
    1W        W43678  23.565   1.436   7.799 -0.1592  0.2472 -0.1100
    1W        W43679  19.440  20.316   8.806 -0.2252 -0.0960 -0.1197
    1W        W43680  15.183  10.088   8.961  0.1662  0.1232  0.1466
    1W        W43681  22.163  16.332   2.662  0.1231  0.0348  0.2607
    1W        W43682  29.560  10.177   7.827 -0.3305 -0.2125 -0.1126
    1W        W43683   5.631   1.165   8.308 -0.0231  0.2747 -0.0694
    1W        W43684  27.983  24.104   8.413  0.2006  0.1326  0.0699
    1W        W43685   7.553  26.552   6.936 -0.0489  0.1411  0.1407
    1W        W43686   0.175   6.684   1.504  0.2356  0.0050 -0.0070
    1W        W43687   6.347   9.090   6.835 -0.1175 -0.3135  0.2109
    1W        W43688  27.813  27.242   6.504  0.2094 -0.1092  0.0631
    1W        W43689  23.496  24.481   0.161 -0.0307  0.1629  0.0231
    1W        W43690   0.408  18.941   0.915 -0.1631  0.1954 -0.3158
    1W        W43691  13.458   0.456   2.444  0.1246  0.0611 -0.0211
    1W        W43692  28.663  20.210   6.870  0.1880  0.2878 -0.0215
    1W        W43693   6.232  21.072   1.425 -0.0677  0.1252 -0.0852
    1W        W43694   4.188  15.876   0.514 -0.0653 -0.5642  0.1162
    1W        W43695   1.979   4.779   9.146 -0.0273  0.2196 -0.1045
    1W        W43696  29.756   4.758   1.613 -0.0323 -0.3385  0.2275
    1W        W43697   7.866  27.504   2.178 -0.0711 -0.0626  0.0122
    1W        W43698  10.239  30.199   3.373  0.1296 -0.0008 -0.0677
    1W        W43699  20.468  22.671   6.883 -0.0365 -0.3977 -0.1400
    1W        W43700   6.107  20.119   1.299  0.1233 -0.0030 -0.2034
    1W        W43701  27.361   8.407   8.158 -0.0661 -0.1993 -0.2446
    1W        W43702  23.167  26.069   2.181  0.0036 -0.0713 -0.0233
    1W        W43703  23.601  20.766   8.962 -0.1850 -0.2267 -0.0229
    1W        W43704   3.710   2.843   9.233  0.3148  0.3586 -0.5398
    1W        W43705  15.129  10.085   6.861  0.2951  0.1239  0.0853
    1W        W43706  17.273  30.055   8.183  0.0745  0.1538  0.0756
    1W        W43707  17.555  27.297   2.400  0.2138 -0.0108  0.0943
    1W        W43708   2.235   8.790   9.198 -0.0316  0.1778  0.1010
    1W        W43709  16.464   3.399   9.184  0.0107 -0.2301 -0.1175
    1W        W43710  20.596  28.279   7.206  0.2065  0.0976 -0.1579
    1W        W43711   8.314  25.816   6.927  0.0899 -0.0450 -0.0730
    1W        W43712   0.084  26.626   1.267  0.0516 -0.3978  0.0894
    1W        W43713   7.099   9.307   7.697  0.0170 -0.3520  0.2165
    1W        W43714   0.136  29.497   0.971 -0.0360  0.0340 -0.1711
    1W        W43715  15.177  20.601   6.276 -0.0414 -0.1261  0.0259
    1W        W43716  16.395  18.110   7.446 -0.1580 -0.3355 -0.2609
    1W        W43717  23.443  16.257   6.119 -0.1795 -0.1166 -0.1316
    1W        W43718  26.806  24.492   2.273  0.0517 -0.1105 -0.0767
    1W        W43719  25.615  30.249   2.998 -0.0691  0.1916  0.1208
    1W        W43720   2.852   2.314   8.164 -0.0582  0.3405  0.0589
    1W        W43721  28.110   5.893   2.739 -0.3610  0.0720  0.2221
    1W        W43722  16.041  12.104   9.238  0.0579 -0.0728  0.0333
    1W        W43723  20.078  14.763   5.817 -0.1676  0.0403 -0.2349
    1W        W43724   3.643  11.624   8.294  0.0455 -0.1699  0.2730
    1W        W43725  28.667  29.913   2.850  0.1657  0.0870  0.3508
    1W        W43726  17.145   6.825   6.733  0.0017  0.0899  0.1703
    1W        W43727  18.801  25.502   1.235 -0.1019  0.1365 -0.1679
    1W        W43728  14.884   7.032   6.409 -0.0993 -0.0876 -0.1597
    1W        W43729  12.449  24.392   7.802 -0.0000 -0.1692 -0.0145
    1W        W43730   4.739  20.265   1.378  0.0661 -0.1493 -0.0419
    1W        W43731  26.568  24.948   9.035  0.1329  0.1134 -0.0880
    1W        W43732   9.365  11.583   0.166  0.4091  0.1327  0.1283
    1W        W43733  21.262   5.652   2.406 -0.3658 -0.1800  0.1081
    1W        W43734   8.700  18.897   0.225 -0.3983  0.0495 -0.1243
    1W        W43735  17.604  30.177   8.521  0.0176 -0.1295  0.0282
    1W        W43736  23.497  21.794   0.938 -0.0056 -0.1313 -0.1278
    1W        W43737   5.354   2.491   3.141  0.0502 -0.2825  0.0313
    1W        W43738  21.954  19.019   8.497 -0.0931  0.2266  0.2048
    1W        W43739  25.781   8.530   2.435 -0.2915  0.0997  0.1860
    1W        W43740   4.570  23.814   1.080 -0.4213  0.1885 -0.4599
    1W        W43741   0.295  25.158   2.283  0.0010 -0.0088 -0.1358
    1W        W43742  13.974  15.640   0.877  0.1910  0.1400  0.1305
    1W        W43743   6.709   5.401   9.260  0.1030  0.1703 -0.1657
    1W        W43744   6.511   0.847   8.597  0.1934 -0.2629 -0.2151
    1W        W43745  19.470  10.599   0.395 -0.0609  0.1252  0.1556
    1W        W43746  25.557   1.224   3.546 -0.0328  0.2013 -0.2940
    1W        W43747  17.343  16.658   2.396  0.1779 -0.0113  0.0980
    1W        W43748  13.654  20.743   6.061 -0.1813  0.1659 -0.1641
    1W        W43749  24.106  24.467   6.920  0.1264 -0.1080 -0.1596
    1W        W43750  29.951  20.619   7.663 -0.0739 -0.0253 -0.0494
    1W        W43751  24.483  11.934   8.583 -0.1083  0.0397  0.0879
    1W        W43752  30.031   4.184   0.883  0.1710  0.0283  0.0864
    1W        W43753  12.567   2.167   1.293 -0.2243 -0.1526  0.0354
    1W        W43754  22.333   4.273   1.501 -0.1646 -0.2000 -0.0801
    1W        W43755  19.145   0.236   0.590  0.0336 -0.0323 -0.3741
    1W        W43756   6.946  25.903   1.859  0.2806  0.0117  0.4891
    1W        W43757  27.858  16.248   7.173 -0.0842 -0.3043 -0.3828
    1W        W43758  17.334  27.220   8.700 -0.0484  0.0195  0.2348
    1W        W43759  17.582   2.734   1.484 -0.0021 -0.2572 -0.3692
    1W        W43760  16.807  23.976   8.228 -0.0244 -0.1040  0.0598
    1W        W43761   2.828   6.458   6.710  0.0322  0.6376  0.0789
    1W        W43762  11.184  11.539   7.543  0.1418  0.0333  0.1218
    1W        W43763   2.714  19.842   8.927  0.3111 -0.1852 -0.0549
    1W        W43764  21.561  18.836   0.049  0.0596 -0.0401  0.1111
    1W        W43765   7.088   3.403   9.117 -0.0694  0.1461 -0.1486
    1W        W43766   2.441  18.544   8.443  0.1025  0.0802  0.1491
    1W        W43767   9.025  17.623   7.281 -0.0093  0.2542  0.1915
    1W        W43768   8.917  18.233   0.204 -0.1426 -0.1022 -0.0213
    1W        W43769   1.651  25.140   2.088  0.0957 -0.0085  0.2958
    1W        W43770  21.118   3.272   2.014  0.2091  0.1352 -0.3435
    1W        W43771  25.804  23.448   9.231 -0.1385  0.0803 -0.2434
    1W        W43772  14.701  27.650   7.140 -0.3373  0.0493 -0.0999
    1W        W43773   4.765  19.905   1.033 -0.1378  0.2376  0.0477
    1W        W43774   7.582  17.672   7.815  0.1315 -0.0279 -0.2644
    1W        W43775  27.601   5.057   8.383  0.0050  0.1336  0.1693
    1W        W43776  29.152   2.225   0.804  0.2912  0.3222  0.3891
    1W        W43777  10.271  21.652   7.297 -0.0894  0.1989  0.0403
    1W        W43778  20.071   7.882   2.171 -0.0551  0.3161  0.2197
    1W        W43779   3.399   3.200   8.986 -0.2809  0.0138 -0.1883
    1W        W43780   9.958  29.423   8.144 -0.3311  0.0223 -0.1568
    1W        W43781   6.300  23.905   7.368  0.2025 -0.1430 -0.4083
    1W        W43782  30.010  26.846   7.598  0.1076 -0.0592  0.1492
    1W        W43783  26.859   0.901   3.785 -0.1158  0.0080  0.2526
    1W        W43784   0.505  10.538   6.961 -0.0917  0.1785  0.2658
    1W        W43785  27.832  17.304   8.071  0.0140 -0.3205  0.2702
    1W        W43786  19.260  28.527   7.049  0.0621 -0.1643 -0.0480
    1W        W43787  17.237  25.378   8.158  0.0461 -0.1127  0.2594
    1W        W43788   3.776  28.014   0.305  0.0120  0.1296  0.0166
    1W        W43789  12.251   3.085   1.470  0.0835  0.3807  0.2831
    1W        W43790  17.447  21.434   8.573  0.2203  0.1033 -0.1951
    1W        W43791  27.071   7.845   2.184 -0.0133 -0.2124 -0.1415
    1W        W43792  20.160  19.861   8.923 -0.0579  0.0727 -0.0538
    1W        W43793  16.568   1.889   1.370 -0.2289 -0.0934 -0.1825
    1W        W43794  27.420  26.910   1.406 -0.0123  0.0777 -0.1335
    1W        W43795  12.734  24.659   0.652  0.2061  0.0531 -0.1329
    1W        W43796  26.048   7.783   1.397  0.4080  0.3771  0.0500
    1W        W43797   6.860   4.820   1.675 -0.0129 -0.1343 -0.1619
    1W        W43798   7.724  23.730   2.254  0.4272  0.0082 -0.2046
    1W        W43799  10.484  18.897   1.802 -0.0813  0.1949 -0.0247
    1W        W43800  29.708   6.054   6.274  0.2525  0.1585 -0.1522
    1W        W43801  26.313   9.388   9.164  0.1307  0.0133 -0.1927
    1W        W43802  10.323   6.429   0.392  0.1831 -0.1649 -0.0740
    1W        W43803  24.252  22.252   0.063  0.1537  0.2071 -0.1694
    1W        W43804  23.985  17.104   0.501 -0.2979 -0.0690 -0.2626
    1W        W43805  11.824  23.935   8.933  0.0862 -0.2224  0.3977
    1W        W43806   6.379  21.015   6.609  0.3255 -0.1052 -0.0686
    1W        W43807   3.632  22.557   9.006 -0.1733 -0.0571 -0.1679
    1W        W43808  14.748  17.631   2.590  0.2134 -0.1911 -0.0258
    1W        W43809  27.901  15.740   8.985 -0.0928  0.2104  0.0853
    1W        W43810  18.415  27.396   9.118  0.1563 -0.0559 -0.0840
    1W        W43811  23.219  18.032   7.724  0.0794 -0.2742 -0.0256
    1W        W43812  13.530   6.848   0.929  0.0289  0.4318 -0.2799
    1W        W43813  15.885   1.828   8.946 -0.3218  0.3455 -0.0823
    1W        W43814   3.672  25.345   1.485 -0.1437  0.1507  0.2613
    1W        W43815  21.698   7.653   7.545  0.0019 -0.0620  0.3189
    1W        W43816   2.793   0.865   3.519  0.1505  0.0364 -0.0974
    1W        W43817  16.903  22.929   9.101 -0.0618  0.0570  0.0478
    1W        W43818  18.485  25.875   7.422  0.0384  0.1641  0.0066
    1W        W43819   0.863  27.114   0.042 -0.0035 -0.0420 -0.0774
    1W        W43820   4.828  20.291   5.920  0.1250 -0.0147 -0.1286
    1W        W43821  24.875  10.880   9.200  0.1359 -0.0350  0.0850
    1W        W43822   9.171  17.122   1.103 -0.2313  0.3703 -0.0421
    1W        W43823  15.239  21.899   2.641 -0.0726 -0.2648  0.1462
    1W        W43824   4.078  17.506   0.303  0.3242 -0.1698 -0.1053
    1W        W43825  24.902   5.941   2.101  0.2704  0.3969 -0.1062
    1W        W43826   6.233  11.155   1.970 -0.2092 -0.1644 -0.0734
    1W        W43827  16.562  29.785   8.915 -0.1211  0.3968  0.0653
    1W        W43828  16.124  23.697   0.757  0.1089 -0.0238 -0.0465
    1W        W43829  25.550  29.781   3.084  0.0575  0.1433  0.0466
    1W        W43830  28.461  15.164   7.804  0.1764  0.1072  0.0505
    1W        W43831  20.367   3.949   0.367 -0.0890  0.0227  0.0804
    1W        W43832  14.888  27.673   7.679  0.2716  0.0343  0.2133
    1W        W43833  17.542   0.077   7.201  0.0470 -0.0034 -0.0183
    1W        W43834  27.632  23.885   7.252  0.2086 -0.2122 -0.1616
    1W        W43835   2.731   9.534   9.102 -0.0046 -0.0589 -0.0091
    1W        W43836  27.689   2.824   2.562 -0.0174 -0.1964  0.3133
    1W        W43837  18.055   8.583   8.082 -0.2644  0.0440 -0.0949
    1W        W43838  20.861  17.557   0.051  0.4921  0.0720  0.1522
    1W        W43839  15.388  29.542   3.339  0.0493  0.0626 -0.1056
    1W        W43840  23.854   0.992   2.912  0.2061  0.0505 -0.0221
    1W        W43841  23.132  26.269   6.994 -0.2616  0.0147 -0.0654
    1W        W43842  20.065  20.691   6.336 -0.1447  0.1669  0.2293
    1W        W43843  21.492  30.181   0.976 -0.3529 -0.0842  0.2261
    1W        W43844  28.844   5.098   7.847  0.1547  0.1045 -0.0688
    1W        W43845   5.774  25.015   6.649  0.0592 -0.1709 -0.0655
    1W        W43846  11.141   9.569   0.911  0.2419 -0.0088 -0.0136
    1W        W43847  11.247  20.997   7.891  0.0730  0.0654  0.3085
    1W        W43848   9.092  15.290   9.064  0.1461  0.0589 -0.2201
    1W        W43849  16.652  28.680   7.907 -0.2057  0.0546 -0.0005
    1W        W43850  21.768  17.973   0.603  0.2208 -0.0522 -0.3019
    1W        W43851   0.638   7.568   0.835 -0.0356  0.2728  0.2331
    1W        W43852   5.358  17.101   0.446  0.0263 -0.0319  0.1471
    1W        W43853  18.063  20.898   7.434  0.2397 -0.2104  0.0971
    1W        W43854   0.032  23.148   0.319  0.1809  0.2599 -0.0339
    1W        W43855   4.782   6.275   7.969 -0.0649 -0.3041 -0.0536
    1W        W43856   8.442  25.229   7.115  0.1019  0.0553 -0.3909
    1W        W43857  11.860   3.153   6.893 -0.1032 -0.0215 -0.2487
    1W        W43858  17.258   8.664   1.514  0.1012 -0.1462  0.1183
    1W        W43859  21.006  28.004   2.549  0.1201  0.2622 -0.2265
    1W        W43860  24.209   7.957   1.735  0.1200  0.4179  0.2667
    1W        W43861  20.262   8.914   9.265 -0.0541  0.0689  0.0130
    1W        W43862   3.904  28.687   8.327 -0.3515 -0.3343  0.0765
    1W        W43863  24.793   3.528   0.324  0.1110  0.0642  0.2753
    1W        W43864  26.087   4.544   7.208 -0.1818 -0.0464 -0.2471
    1W        W43865   9.487  27.384   7.438  0.6391 -0.1549 -0.3558
    1W        W43866  28.149  24.007   6.528 -0.3270 -0.1411  0.0251
    1W        W43867  26.928  12.100   7.132 -0.1278 -0.0357  0.2792
    1W        W43868   3.991  28.145   8.114 -0.1739  0.0645  0.1137
    1W        W43869   4.890  24.718   2.024 -0.1415  0.3415 -0.3065
    1W        W43870  18.131  18.579   7.713 -0.0949 -0.1658  0.1990
    1W        W43871  30.035  21.744   7.075 -0.0161 -0.0306  0.1404
    1W        W43872  21.907  26.390   7.714  0.1250  0.2435  0.1908
    1W        W43873  29.274  10.850   6.586  0.2419 -0.3040  0.0558
    1W        W43874  23.565  21.996   0.142 -0.1431 -0.0815  0.1667
    1W        W43875  18.419  24.174   1.543  0.2275  0.1759  0.3618
    1W        W43876   9.765  17.422   8.392  0.0997  0.1778  0.1033
    1W        W43877   1.262   3.746   7.672  0.2170 -0.2917  0.0061
    1W        W43878  20.407   9.264   8.574  0.1942 -0.0543  0.0554
    1W        W43879  23.048   1.737   2.938  0.0908 -0.1473 -0.0253
    1W        W43880   8.015  20.960   2.354 -0.1223 -0.0945 -0.4222
    1W        W43881   3.262  19.566   8.329 -0.2153  0.1999  0.1202
    1W        W43882   7.016  24.684   6.756  0.4626  0.0885 -0.0628
    1W        W43883   4.297  26.705   2.149  0.2255  0.1180 -0.1513
    1W        W43884  25.109   8.456   0.793  0.0105 -0.1572  0.0064
    1W        W43885  19.806  12.855   0.414  0.0676  0.0685 -0.1008
    1W        W43886  24.114  15.361   0.341  0.1567  0.0677  0.1565
    1W        W43887  16.577  27.482   1.796  0.3581  0.2817  0.1217
    1W        W43888  15.131  11.888   0.304  0.2886 -0.1707 -0.1343
    1W        W43889   8.867  27.204   8.166  0.2138 -0.1179  0.0205
    1W        W43890  27.354   6.443   0.262  0.1393  0.2016  0.1690
    1W        W43891   9.077  16.543   2.094  0.3767  0.0137  0.1122
    1W        W43892   6.814   2.943   8.563 -0.2403 -0.2926 -0.0195
    1W        W43893  12.726   8.489   1.952 -0.1417  0.1926  0.0046
    1W        W43894  17.496  16.748   0.586  0.1730  0.4413 -0.0426
    1W        W43895  11.911  13.944   0.624  0.3323 -0.1522  0.4651
    1W        W43896  18.259  29.672   2.140 -0.1841 -0.0336 -0.1976
    1W        W43897   6.199  13.414   1.424 -0.0178  0.1278 -0.1857
    1W        W43898  11.337   0.093   2.067  0.1699 -0.2213  0.4467
    1W        W43899  29.521   7.075   3.356  0.1115 -0.1714  0.1918
    1W        W43900   6.742  18.763   0.239 -0.1049  0.0417 -0.1500
    1W        W43901  24.058  19.931   7.553 -0.2864 -0.0664  0.1690
    1W        W43902  24.603   7.338   0.352 -0.1685  0.0067  0.0698
    1W        W43903   7.653   8.402   9.232  0.0431  0.0156  0.3405
    1W        W43904  15.859  12.433   0.277 -0.1257 -0.2111 -0.0058
    1W        W43905   4.352   1.927   2.642  0.0109 -0.1646 -0.1702
    1W        W43906  24.685   6.141   0.939  0.0993  0.2571 -0.0186
    1W        W43907   2.304   0.615   3.678  0.3144  0.2248 -0.2175
    1W        W43908   1.539  29.471   2.121 -0.4169  0.2147  0.0199
    1W        W43909  24.193  24.028   2.504 -0.0912 -0.2743 -0.0179
    1W        W43910  24.651  16.823   8.281  0.1901 -0.0592  0.1270
    1W        W43911   8.043   1.810   6.712  0.0829 -0.0196  0.2375
    1W        W43912  14.667   6.456   0.581  0.0162  0.0811  0.2226
    1W        W43913  23.887  28.027   7.333 -0.3781  0.4021  0.3470
    1W        W43914  17.999  16.839   0.505  0.0411 -0.3222 -0.0575
    1W        W43915  13.597   6.482   2.048  0.3228 -0.4651  0.2175
    1W        W43916  10.612   8.752   1.759 -0.2796 -0.2457 -0.2265
    1W        W43917  22.421   1.636   1.650 -0.2343 -0.0881 -0.2310
    1W        W43918  21.645  16.972   2.442  0.1966  0.2885 -0.2036
    1W        W43919  18.716  21.023   8.658 -0.2292  0.1976 -0.2968
    1W        W43920   7.181   1.975   0.884 -0.2165 -0.2637  0.0851
    1W        W43921  10.322  20.308   6.497  0.1893  0.2191  0.0073
    1W        W43922  22.033   5.000   7.549 -0.0736 -0.1750  0.0623
    1W        W43923   5.424  26.060   8.826  0.1221 -0.0679 -0.2635
    1W        W43924  26.888  20.554   6.127 -0.0504 -0.1089 -0.2293
    1W        W43925  30.001  14.772   2.152 -0.1657  0.0058  0.2482
    1W        W43926   4.691   9.017   0.083 -0.0052  0.0993 -0.0776
    1W        W43927   5.239  27.355   2.633  0.0534  0.3030 -0.2368
    1W        W43928   7.692   8.009   2.378 -0.2701  0.0034  0.0148
    1W        W43929   5.995   1.730   0.212 -0.1702 -0.0502  0.0243
    1W        W43930  20.562  25.977   0.118  0.2367  0.2747  0.1112
    1W        W43931  14.893  20.324   8.276  0.3916  0.4651 -0.0216
    1W        W43932  18.903   1.795   3.151  0.6132  0.0624  0.1550
    1W        W43933  29.280  16.190   0.739 -0.0052  0.0192  0.1292
    1W        W43934   4.193  19.885   8.232 -0.2481 -0.0707  0.0956
    1W        W43935  15.441  27.759   6.670  0.0554  0.1128 -0.2551
    1W        W43936   3.227  10.276   1.689 -0.2954  0.0566 -0.0326
    1W        W43937   3.882  14.245   0.862  0.2351  0.0266 -0.0383
    1W        W43938  27.172  13.160   1.462  0.2581  0.2789 -0.1085
    1W        W43939   6.427  23.353   1.199 -0.1488  0.1400  0.0444
    1W        W43940   8.633   9.184   2.132  0.0668 -0.2121 -0.0296
    1W        W43941  11.891  10.684   0.760 -0.1517 -0.1082 -0.0227
    1W        W43942  30.183   3.763   7.765  0.2688 -0.3300  0.1334
    1W        W43943  24.184  23.902   0.297 -0.0538 -0.1147 -0.1612
    1W        W43944  10.074  26.171   1.626  0.1782  0.0600  0.2829
    1W        W43945  16.752  14.541   3.613 -0.0967 -0.1915  0.0656
    1W        W43946   9.131  21.302   7.458  0.0418 -0.0689 -0.0041
    1W        W43947  23.745   6.940   8.326  0.1807 -0.0644  0.1367
    1W        W43948   2.491   7.330   8.324 -0.3201 -0.1094  0.3301
    1W        W43949  24.928  23.522   7.301 -0.1806 -0.1015 -0.0143
    1W        W43950  19.977  24.393   0.686 -0.0355  0.0064  0.1733
    1W        W43951  12.517   4.345   7.907  0.2989  0.2805  0.1325
    1W        W43952  15.095   0.376   8.927  0.0496  0.3275  0.3774
    1W        W43953  17.130   0.877   7.310  0.1390 -0.0164 -0.0125
    1W        W43954  16.420   9.587   8.771 -0.0102  0.0458  0.0557
    1W        W43955  22.868  26.766   8.999  0.0976 -0.1256  0.2857
    1W        W43956  23.043  24.794   1.566 -0.1058  0.1342  0.2520
    1W        W43957  17.991  13.791   8.888 -0.0810  0.1258 -0.1280
    1W        W43958  24.134   4.423   8.824 -0.0086  0.1258 -0.0735
    1W        W43959  27.540  15.145   1.010 -0.0673  0.0212  0.0837
    1W        W43960  20.250  25.709   3.124  0.3149  0.0790 -0.3621
    1W        W43961  26.377   4.950   7.722 -0.1833  0.0271 -0.1705
    1W        W43962  17.958  15.927   0.300  0.0144  0.1145  0.0229
    1W        W43963  16.350  25.082   7.953 -0.0651  0.0211  0.0004
    1W        W43964   5.575  20.835   7.621  0.3635  0.1997  0.1056
    1W        W43965  25.469  24.602   6.997  0.0095 -0.2819  0.1130
    1W        W43966  20.363  19.085   8.508 -0.0339  0.1450 -0.0085
    1W        W43967  15.098  17.350   6.612  0.1583 -0.0356  0.3709
    1W        W43968  27.276  28.480   2.439 -0.1260 -0.0322 -0.0448
    1W        W43969  14.782  12.723   1.229 -0.1914  0.0094  0.0549
    1W        W43970   3.812  28.276   1.654  0.1392 -0.0937  0.0922
    1W        W43971   7.841  21.589   1.609 -0.0435 -0.1194 -0.1345
    1W        W43972   2.911  15.386   7.528 -0.1433  0.0805 -0.0660
    1W        W43973  11.817  22.007   1.012 -0.0568  0.0485 -0.2571
    1W        W43974  22.412   0.163   0.365  0.0588  0.4718 -0.0255
    1W        W43975  18.014   9.344   1.386  0.1750 -0.1685 -0.3491
    1W        W43976  21.591  11.523   6.653  0.4956  0.4504  0.0527
    1W        W43977  20.689  26.145   8.955  0.4496  0.1752 -0.0241
    1W        W43978  19.482   0.538   2.228  0.2350  0.1604 -0.0630
    1W        W43979  22.107   4.486   0.481 -0.0425  0.0121 -0.0222
    1W        W43980   9.531  26.065   8.867 -0.0158  0.3667  0.0175
    1W        W43981   2.442  26.428   2.201 -0.2611  0.0919 -0.2203
    1W        W43982  23.417  18.851   6.372 -0.1839  0.0255 -0.1429
    1W        W43983  12.487   4.663   9.219  0.1110  0.1807  0.0209
    1W        W43984  14.668   0.591   2.765 -0.2922  0.0675  0.0134
    1W        W43985  11.375  23.987   7.246 -0.0683 -0.1403 -0.0511
    1W        W43986  25.005  22.546   8.870  0.1340 -0.0211 -0.0232
    1W        W43987  24.353  23.793   6.275 -0.0440  0.0506 -0.0426
    1W        W43988  29.484  23.605   9.245  0.3238 -0.1478  0.3278
    1W        W43989   2.169  16.901   0.958 -0.1200 -0.2190 -0.1341
    1W        W43990  25.385   0.551   2.256 -0.2219 -0.1136  0.2112
    1W        W43991   8.851  25.370   1.453 -0.1679  0.4211  0.0899
    1W        W43992  18.112  25.051   8.486  0.2633 -0.1545 -0.1773
    1W        W43993  15.921  26.961   9.191 -0.0487 -0.1634 -0.0836
    1W        W43994  28.864   3.160   0.915 -0.2255 -0.2154  0.2052
    1W        W43995   9.970  15.966   1.022 -0.1327  0.2356  0.0432
    1W        W43996   1.793  19.898   7.303  0.2331  0.0837 -0.1224
    1W        W43997   6.119   8.919   7.232 -0.0470 -0.0641 -0.0428
    1W        W43998   9.039  21.757   6.542 -0.0049 -0.1160  0.0613
    1W        W43999  12.218  12.332   7.633  0.0344  0.1155 -0.0121
    1W        W44000  10.806  18.412   6.509 -0.0601 -0.0056 -0.0505
    1W        W44001  19.877  10.442   8.164 -0.0038 -0.2116  0.4448
    1W        W44002  28.044  17.435   0.822 -0.1058 -0.5414 -0.1820
    1W        W44003   2.956  18.443   7.695  0.1307  0.0704  0.0856
    1W        W44004  21.490  23.159   7.247  0.1069  0.0735  0.0823
    1W        W44005  29.606   3.585   6.954 -0.0218 -0.0397 -0.0768
    1W        W44006   7.645   5.929   7.729  0.1646 -0.0769  0.0720
    1W        W44007  24.806  13.376   2.020  0.1258  0.0784 -0.1540
    1W        W44008   3.018   9.345   3.109  0.0927  0.0182 -0.1187
    1W        W44009  14.554   9.655   8.282  0.1637  0.3004  0.1257
    1W        W44010   1.343  25.052   7.341 -0.0579 -0.1633 -0.2309
    1W        W44011   5.085  10.303   0.469  0.0413 -0.1212  0.2781
    1W        W44012  22.987  29.599   1.157  0.2132 -0.2265  0.2018
    1W        W44013  27.174   6.254   8.757  0.2359 -0.1906 -0.2696
    1W        W44014  14.156  13.124   2.731  0.1618  0.2066 -0.0578
    1W        W44015   2.586   2.933   7.611 -0.0685  0.0295  0.3633
    1W        W44016  22.209  24.077   8.803  0.0208  0.2227  0.1775
    1W        W44017   7.789   8.816   8.426  0.0643  0.3806  0.0245
    1W        W44018  16.205  10.590   7.058 -0.0478 -0.4042 -0.1229
    1W        W44019  15.950  15.587   0.355 -0.1927 -0.2047  0.0546
    1W        W44020  10.952  12.512   2.268 -0.1086  0.2331 -0.3298
    1W        W44021   5.177  16.314   1.921  0.0881  0.0542 -0.0094
    1W        W44022  28.320  22.212   0.765 -0.0463 -0.0723 -0.1118
    1W        W44023  23.603  25.834   2.101  0.1622  0.2327  0.1330
    1W        W44024  12.001  15.160   0.353  0.1654 -0.0622 -0.0627
    1W        W44025   6.051  21.662   0.076  0.0900  0.0635 -0.1084
    1W        W44026   8.739   0.412   2.185 -0.0242 -0.1727 -0.1918
    1W        W44027  29.404  23.673   2.659  0.2763 -0.1088 -0.1794
    1W        W44028   9.345   9.016   6.912  0.1151 -0.2915  0.0126
    1W        W44029  25.941  26.641   1.356  0.2862  0.2533  0.0267
    1W        W44030  13.632   2.001   7.102 -0.1951 -0.1962 -0.2374
    1W        W44031  13.464   0.243   8.631  0.2160 -0.0221 -0.1550
    1W        W44032   4.442  14.406   8.372  0.1163 -0.4167 -0.2059
    1W        W44033   1.916   5.344   1.125 -0.0283  0.1947  0.2178
    1W        W44034   9.666   7.099   2.265 -0.1522  0.0059  0.0680
    1W        W44035  17.472  15.867   0.447  0.1306 -0.1246  0.1542
    1W        W44036  17.653  24.247   8.005  0.1002 -0.2537  0.1642
    1W        W44037  28.633   5.046   1.233  0.2209  0.1503  0.1613
    1W        W44038   0.720   3.518   7.573  0.1757 -0.1139  0.2975
    1W        W44039   1.672  29.583   2.699 -0.0046 -0.1644  0.1074
    1W        W44040   5.355   0.275   2.488  0.0723 -0.2980 -0.0376
    1W        W44041  15.820  17.223   0.345 -0.2319 -0.0495 -0.0176
    1W        W44042   7.289  29.316   2.295 -0.3485  0.2241  0.1814
    1W        W44043   8.115  10.681   0.072 -0.2791 -0.1200  0.0839
    1W        W44044   5.628  12.475   6.905 -0.1157 -0.0359  0.2366
    1W        W44045  25.715  19.862   0.426 -0.0126  0.1520  0.0319
    1W        W44046  13.723   1.048   8.972 -0.2177 -0.0872 -0.0480
    1W        W44047  20.636  10.739   0.635 -0.0374  0.1938  0.1321
    1W        W44048  15.004  26.881   8.845 -0.0314 -0.1956 -0.0479
    1W        W44049   9.025   0.777   7.029 -0.0399  0.1047  0.0140
    1W        W44050  12.706   5.529   1.663 -0.0271 -0.0818  0.3215
    1W        W44051  28.969  18.650   8.129  0.0855  0.0542 -0.3741
    1W        W44052  28.539   1.201   7.390  0.0501 -0.0417  0.0191
    1W        W44053  22.724  22.459   1.003 -0.0070 -0.1729 -0.1051
    1W        W44054   1.147  27.666   3.593  0.5972  0.2156  0.1362
    1W        W44055   8.800  20.699   6.145 -0.3270 -0.2016 -0.0610
    1W        W44056  27.302  18.704   5.753  0.1438  0.2551 -0.0832
    1W        W44057   1.248  25.713   8.003 -0.0093 -0.0770 -0.2670
    1W        W44058  24.868   4.738   7.294 -0.0763  0.1575 -0.0930
    1W        W44059  18.714  29.229   0.723 -0.1917 -0.3803  0.1830
    1W        W44060  11.245  20.459   8.016 -0.0060 -0.2410 -0.3942
    1W        W44061  15.462   8.944   7.473  0.0066  0.0469  0.1252
    1W        W44062  16.588  13.709   0.176  0.1163  0.0442 -0.1144
    1W        W44063   9.669  18.720   7.400 -0.0348  0.1085 -0.1451
    1W        W44064  24.627   2.243   2.004 -0.0511  0.0747  0.0413
    1W        W44065   6.786   2.131   7.860 -0.0038 -0.1709  0.1468
    1W        W44066  15.544   9.074   9.105  0.4359 -0.2251 -0.0610
    1W        W44067  19.220   3.502   6.230  0.0964 -0.0732 -0.0918
    1W        W44068  13.561  25.063   8.624  0.1808  0.3311 -0.1998
    1W        W44069   8.689  24.975   7.911 -0.2082 -0.0596 -0.2612
    1W        W44070  17.910  22.278   6.946  0.0465  0.0042  0.0452
    1W        W44071  19.755   9.010   1.787 -0.0710 -0.1682  0.0541
    1W        W44072  17.189  13.202   7.684  0.1767  0.0447 -0.1377
    1W        W44073   2.516  26.046   0.189  0.2903  0.0883 -0.1125
    1W        W44074  21.583  10.781   5.959  0.3243 -0.2518 -0.1315
    1W        W44075  15.079  24.573   8.249  0.3163 -0.0662 -0.2566
    1W        W44076  11.397  19.938   8.968  0.0335  0.0694 -0.4213
    1W        W44077   6.466  11.029   0.609 -0.0772  0.0360  0.0403
    1W        W44078  21.209  13.597   2.728  0.0390  0.1262  0.0713
    1W        W44079  28.833  24.516   0.845  0.5348 -0.1230 -0.0781
    1W        W44080  12.897  23.649   8.906 -0.1214 -0.2453  0.1765
    1W        W44081   8.531  17.560   0.441 -0.1417  0.4036 -0.3247
    1W        W44082   8.437  16.665   0.711 -0.3319 -0.2267 -0.0297
    1W        W44083  28.845   4.683   2.252  0.1163 -0.1480 -0.2133
    1W        W44084   3.366  23.706   1.305 -0.4196 -0.0608  0.2276
    1W        W44085   1.829   6.504   2.044  0.0534  0.0533 -0.4499
    1W        W44086  21.915   9.781   1.588  0.1487 -0.0280 -0.0969
    1W        W44087  12.818   6.021   5.646  0.0302  0.0340 -0.0223
    1W        W44088  26.182   3.949   0.704  0.0235 -0.2036 -0.0251
    1W        W44089  24.709  12.171   1.090 -0.1155 -0.4480 -0.0208
    1W        W44090  11.968  15.337   8.314 -0.2910 -0.1245  0.0916
    1W        W44091  15.109  14.156   9.025  0.0970 -0.0852 -0.0333
    1W        W44092  29.685  27.673   7.612 -0.2118  0.2447 -0.0532
    1W        W44093  11.664  28.104   2.196  0.2187 -0.2060 -0.0841
    1W        W44094  23.592   1.810   7.518 -0.0970 -0.0953  0.0536
    1W        W44095  18.682   4.262   0.526 -0.5559  0.2315  0.1676
    1W        W44096   5.877  15.440   9.119 -0.2095 -0.0648 -0.0807
    1W        W44097  27.623  29.600   3.208  0.1998 -0.1511  0.1839
    1W        W44098   3.783  11.828   0.060 -0.3073  0.1401 -0.2479
    1W        W44099  28.630  25.720   0.236 -0.2694 -0.0342  0.0422
    1W        W44100   0.321   9.012   6.762 -0.1246  0.2423 -0.1040
    1W        W44101   7.638  26.246   7.495 -0.2568  0.1090 -0.2187
    1W        W44102   3.606   8.140   7.106  0.1421 -0.1073  0.2342
    1W        W44103  17.700  13.520   8.102 -0.3646  0.2271  0.0929
    1W        W44104  12.358  23.735   8.048  0.3467  0.0322 -0.0425
    1W        W44105  26.537  21.908   0.572 -0.2059  0.0808  0.0519
    1W        W44106  30.171  24.451   1.958 -0.0862  0.2594 -0.2036
    1W        W44107   7.442  14.912   8.085 -0.0040  0.0425 -0.0003
    1W        W44108  16.510  16.081   2.321 -0.0778 -0.2397 -0.3294
    1W        W44109   2.965  20.605   7.191  0.0672 -0.1725  0.0340
    1W        W44110  14.077   4.038   2.413 -0.1081 -0.0182  0.1774
    1W        W44111  20.915  15.126   2.597  0.0390  0.1019 -0.2416
    1W        W44112  29.659  28.240   6.987  0.1200 -0.0027 -0.0707
    1W        W44113   0.887  26.652   8.525 -0.2036  0.1285  0.0247
    1W        W44114  24.658  21.565   0.821 -0.1511  0.1778  0.2598
    1W        W44115  12.186  13.569   8.795  0.4011 -0.0471  0.0419
    1W        W44116  20.341   5.069   8.899  0.0679 -0.0407 -0.0337
    1W        W44117  11.683  21.864   9.111  0.5272  0.1482  0.2199
    1W        W44118  28.787  12.547   9.236 -0.0517  0.0233  0.0346
    1W        W44119   2.338  16.954   8.148  0.0289  0.3072  0.0479
    1W        W44120   9.359   8.764   2.726  0.0166 -0.2294 -0.1051
    1W        W44121  15.532  16.543   1.814  0.2312  0.1286  0.1389
    1W        W44122  12.735   1.496   1.613 -0.1442 -0.2262 -0.1337
    1W        W44123   7.198  25.369   8.517 -0.0709  0.3587  0.1663
    1W        W44124   0.535  26.453   2.223 -0.2613 -0.0942 -0.0533
    1W        W44125   8.748  14.221   0.277  0.1141  0.1117  0.2258
    1W        W44126  26.989  29.493   1.082  0.0001 -0.1523 -0.0552
    1W        W44127  13.159  16.633   2.418 -0.0018 -0.0023 -0.2648
    1W        W44128  16.755  25.348   8.412  0.0061 -0.0409 -0.1162
    1W        W44129   7.647  12.241   6.990 -0.4116  0.5679  0.1907
    1W        W44130  13.501  16.846   7.185  0.2806  0.1411 -0.0751
    1W        W44131  17.551  14.910   0.345 -0.1571 -0.1159 -0.0034
    1W        W44132  29.231   5.776   9.036  0.1630  0.0833 -0.1148
    1W        W44133   1.066  21.180   1.003 -0.1013  0.2805 -0.0463
    1W        W44134  27.531  16.339   1.178 -0.4167 -0.3270 -0.0892
    1W        W44135  23.169  26.157   3.483  0.3286 -0.0124  0.1408
    1W        W44136   0.287   6.545   7.729  0.2056 -0.0669 -0.0524
    1W        W44137   1.619  23.154   8.791 -0.2173 -0.3583  0.1412
    1W        W44138  27.459   7.492   9.033 -0.1094 -0.1979 -0.1095
    1W        W44139  24.538  28.815   7.719 -0.0201  0.4284 -0.0013
    1W        W44140  14.974  22.883   1.121  0.0413 -0.1558  0.1956
    1W        W44141   0.735  17.733   1.343  0.0481 -0.0435 -0.0411
    1W        W44142   1.830   2.124   3.908 -0.1501  0.0932 -0.1550
    1W        W44143  20.419   8.432   7.502 -0.2350 -0.1518  0.2589
    1W        W44144   6.635   8.194   8.011  0.0971  0.1243 -0.0766
    1W        W44145  10.270   9.353   6.666 -0.0497  0.0380  0.0906
    1W        W44146  14.906  27.491   2.405 -0.2115  0.0810 -0.2212
    1W        W44147   2.875   7.587   8.161 -0.0994  0.0412  0.3814
    1W        W44148  27.344   0.360   1.632  0.0488 -0.2089 -0.1926
    1W        W44149  22.588   9.728   0.627  0.0199 -0.0668  0.0933
    1W        W44150   9.896  30.015   2.836 -0.3259 -0.0502  0.3582
    1W        W44151   8.610   5.487   1.441 -0.1923 -0.2922  0.0426
    1W        W44152  22.768  11.498   7.793  0.0869 -0.3166  0.0206
    1W        W44153  13.241  18.415   7.786  0.2405  0.2358 -0.1363
    1W        W44154  20.818  16.062   1.847  0.1464  0.3066 -0.3452
    1W        W44155   5.619   0.910   7.175 -0.1422  0.1526 -0.0081
    1W        W44156   3.842   1.435   1.951 -0.0025  0.4274 -0.1400
    1W        W44157   5.024  15.206   8.672 -0.4287  0.0679 -0.1936
    1W        W44158   8.469  18.405   0.977  0.0913 -0.3119 -0.3337
    1W        W44159  10.367   9.351   8.967 -0.1959 -0.2991 -0.0545
    1W        W44160   6.638   7.629   2.192  0.1712 -0.1358  0.0317
    1W        W44161  19.299  13.826   0.218 -0.1517 -0.0718  0.0088
    1W        W44162  13.434  10.561   8.949 -0.1853 -0.2492  0.0281
    1W        W44163  22.702   2.907   2.124 -0.0490  0.0632  0.2561
    1W        W44164   6.937   5.101   8.363 -0.0291  0.1821 -0.3072
    1W        W44165  10.712   4.247   7.434 -0.0249 -0.3889 -0.1645
    1W        W44166  19.732  21.031   6.638 -0.2772 -0.0010  0.0436
    1W        W44167  19.404  25.256   9.090  0.2379 -0.2081  0.0402
    1W        W44168  30.097  20.830   1.023 -0.1366  0.1342 -0.0217
    1W        W44169   8.245  14.202   0.185  0.0821 -0.1738  0.3730
    1W        W44170  29.347  29.796   1.994 -0.0432  0.2967  0.3608
    1W        W44171  23.473  21.025   0.221 -0.0129 -0.1566 -0.1014
    1W        W44172  14.041   2.893   7.628 -0.0033 -0.2978  0.1134
    1W        W44173  20.208   7.632   3.050 -0.0636 -0.0732 -0.1870
    1W        W44174  28.935  26.467   8.293 -0.1162 -0.2212 -0.0192
    1W        W44175  21.641  18.056   1.437  0.3327  0.3872  0.0451
    1W        W44176  13.895   4.666   1.149 -0.0681 -0.0686 -0.1627
    1W        W44177  29.226   2.553   2.502  0.0571  0.2928 -0.1736
    1W        W44178   6.399   8.596   0.244 -0.0378  0.2908 -0.2171
    1W        W44179  28.228   0.865   0.630  0.0682 -0.0481 -0.0134
    1W        W44180   9.519  17.945   1.917  0.1290  0.0829 -0.0180
    1W        W44181   4.470   2.824   8.146  0.1146  0.2288 -0.2167
    1W        W44182   2.586  25.520   8.469 -0.1712  0.0254  0.0029
    1W        W44183  28.988   3.878   2.835  0.2447 -0.1402  0.1111
    1W        W44184   0.761  19.264   7.316  0.1212  0.3775  0.1874
    1W        W44185  22.722   6.955   6.966  0.0434  0.2748  0.1920
    1W        W44186   7.732   2.200   2.873  0.0671 -0.2573  0.0083
    1W        W44187  26.352  27.487   0.881 -0.0753  0.2078 -0.0258
    1W        W44188  14.873  19.649   2.571  0.0641 -0.0290  0.1080
    1W        W44189  26.503   6.914   1.013  0.0389  0.0408 -0.0327
    1W        W44190  26.564   3.653   0.802  0.0272  0.2387 -0.0605
    1W        W44191   7.099  17.967   8.047  0.1485  0.3586 -0.0427
    1W        W44192  28.310  19.178   8.736 -0.0295 -0.1403  0.1339
    1W        W44193  20.003  12.126   1.305  0.0007 -0.0758 -0.3489
    1W        W44194   3.275   1.708   1.017 -0.1743  0.0589  0.0852
    1W        W44195  27.716   1.665   8.805  0.1212 -0.2690 -0.0013
    1W        W44196  13.501   7.417   7.613  0.0682  0.1129  0.1867
    1W        W44197   8.958  18.518   6.274  0.1750  0.1892  0.1099
    1W        W44198  22.673  12.529   0.730 -0.3021  0.0983  0.1729
    1W        W44199   0.307  23.871   9.044  0.0002  0.2779  0.0707
    1W        W44200  28.587   1.506   2.823 -0.0570  0.0719  0.0313
    1W        W44201   0.342  11.255   7.852 -0.0565  0.1261  0.2073
    1W        W44202   1.433  13.392   0.209 -0.0854  0.0099  0.0858
    1W        W44203  26.658  17.322   0.992 -0.0449  0.1691  0.0333
    1W        W44204   6.789  27.123   1.407 -0.0219 -0.0964 -0.0823
    1W        W44205  16.592   9.599   0.492 -0.1174  0.0820 -0.0796
    1W        W44206  12.683  23.606   7.700 -0.3013  0.1469  0.0640
    1W        W44207  21.597  21.056   1.454 -0.0016 -0.0823  0.0380
    1W        W44208  17.289  22.171   0.417 -0.0196  0.2079  0.0250
    1W        W44209   6.720   0.343   2.884  0.0927 -0.2359 -0.1462
    1W        W44210  25.745   7.048   2.094  0.0842  0.1191 -0.1886
    1W        W44211  24.453   3.232   0.768  0.1743  0.4348  0.1132
    1W        W44212   2.000  18.441   8.631 -0.0731  0.1155 -0.1096
    1W        W44213   8.496  18.303   1.783 -0.2449  0.1946  0.0128
    1W        W44214   4.060  16.841   8.634  0.0276 -0.1409 -0.1976
    1W        W44215   9.460  21.994   6.587 -0.0434  0.4667 -0.0158
    1W        W44216   5.101  27.909   2.203 -0.0115  0.2501  0.0169
    1W        W44217   2.256  14.768   7.027 -0.0371  0.1277  0.1321
    1W        W44218   8.848  25.758   2.343 -0.0724 -0.0403 -0.2798
    1W        W44219  19.016   8.710   1.721 -0.1667  0.1071  0.1692
    1W        W44220  22.460   5.626   8.955 -0.2396  0.2878 -0.0146
    1W        W44221  24.178  13.644   6.705 -0.1179 -0.1462 -0.1183
    1W        W44222  13.401  27.665   1.778 -0.1217 -0.1274  0.1018
    1W        W44223  15.640   6.338   1.177 -0.1815 -0.1796  0.1286
    1W        W44224   1.754   5.440   8.216 -0.1209  0.0209  0.0495
    1W        W44225  12.326  14.700   7.943 -0.1834  0.1779  0.1549
    1W        W44226  21.842  14.416   1.366 -0.0272 -0.2008 -0.2139
    1W        W44227   2.321   6.753   6.853  0.1389 -0.1147 -0.0603
    1W        W44228  13.100  23.922   2.503  0.1231  0.0205  0.0248
    1W        W44229   8.991  27.520   7.378 -0.0223 -0.1661 -0.3566
    1W        W44230   3.240  16.639   0.941  0.1144  0.1064  0.0314
    1W        W44231  21.536  21.068   6.150 -0.4407 -0.2045  0.0598
    1W        W44232  19.493  28.680   7.601  0.0635 -0.0736 -0.1518
    1W        W44233  24.988  26.470   1.039 -0.4521  0.2515  0.2660
    1W        W44234  16.412   0.854   7.915  0.3011 -0.1763 -0.0116
    1W        W44235   6.009   1.004   8.586  0.1308  0.1917  0.1678
    1W        W44236  10.311  29.438   8.685  0.0904 -0.0086 -0.0891
    1W        W44237   0.006   6.934   8.013 -0.2944  0.1242 -0.1998
    1W        W44238  12.041   1.703   7.605  0.1694 -0.3130 -0.3152
    1W        W44239   8.713  14.278   7.086  0.0822  0.1425  0.3668
    1W        W44240   3.674  10.506   0.008 -0.3069 -0.0871 -0.1698
    1W        W44241   9.282   0.948   8.079  0.1504 -0.1625  0.1829
    1W        W44242  21.837   6.637   2.234 -0.1542 -0.2664  0.0902
    1W        W44243  20.790  15.962   6.080  0.2495 -0.2868 -0.3810
    1W        W44244  27.586   5.819   0.361  0.0659  0.0276  0.2213
    1W        W44245  20.265   3.225   2.411  0.0894  0.2189 -0.0219
    1W        W44246  16.467  24.422   0.518 -0.1706 -0.1621 -0.1979
    1W        W44247  24.917   1.045   0.391 -0.1614 -0.4226  0.1259
    1W        W44248   2.783   0.213   2.321 -0.0183 -0.0166  0.2106
    1W        W44249  21.673  13.113   1.318 -0.4123 -0.1137  0.0240
    1W        W44250  11.685   6.196   2.069 -0.1064  0.1791 -0.2791
    1W        W44251   9.455  24.556   2.559  0.3012  0.0364  0.1435
    1W        W44252   5.321  23.650   7.532  0.0573 -0.2061  0.0578
    1W        W44253  18.675  18.817   8.581  0.1844  0.1968  0.1832
    1W        W44254   3.175  27.472   1.531 -0.0681  0.0515 -0.0390
    1W        W44255  12.456  23.204   7.344  0.0357  0.3027 -0.1397
    1W        W44256  22.889   0.142   2.229  0.2928  0.1288  0.0139
    1W        W44257  29.718  18.872   1.013  0.1122  0.2074 -0.1006
    1W        W44258   5.093   4.191   0.114 -0.0889  0.3375  0.1091
    1W        W44259  22.705   2.711   0.809 -0.1379 -0.0287  0.0626
    1W        W44260  19.272  18.769   6.006  0.1058 -0.0583 -0.1223
    1W        W44261  14.869  23.071   2.915  0.1437 -0.0537 -0.0934
    1W        W44262  16.205   1.684   2.844  0.2737 -0.0713 -0.2907
    1W        W44263  15.831  28.467   7.132  0.2513  0.1172 -0.0700
    1W        W44264   9.625  16.188   9.009  0.0194 -0.0802  0.0810
    1W        W44265   8.164  27.618   7.276 -0.1342 -0.0593 -0.3318
    1W        W44266   5.203  22.868   7.707  0.2599  0.1645  0.0856
    1W        W44267  22.479  12.077   8.456 -0.4628  0.0546 -0.2368
    1W        W44268   3.982  23.690   6.991  0.0826  0.0034 -0.1263
    1W        W44269  24.413   2.530   1.517  0.0396 -0.0954  0.0693
    1W        W44270   6.070  14.355   7.441 -0.4916 -0.2720  0.1111
    1W        W44271   5.220  22.760   6.818  0.0095 -0.0930  0.0469
    1W        W44272  20.999   4.551   8.942  0.2814  0.2357  0.0481
    1W        W44273  25.758  17.045   7.353 -0.2480  0.0874 -0.3456
    1W        W44274   1.172   6.768   1.630 -0.0368 -0.0875 -0.2527
    1W        W44275  24.410  25.627   7.648 -0.0231  0.1404 -0.0723
    1W        W44276   7.336   8.602   8.588  0.0013 -0.1261 -0.2646
    1W        W44277  22.762  14.135   1.189  0.0169 -0.2834 -0.4843
    1W        W44278  20.883   0.027   2.110  0.0557  0.0042  0.1164
    1W        W44279   7.600  12.875   0.416 -0.2935 -0.1951  0.0274
    1W        W44280   7.786   9.337   7.397 -0.0183 -0.2461  0.2513
    1W        W44281  25.038  24.518   8.505  0.2806 -0.2160 -0.1592
    1W        W44282   9.872  14.105   7.594 -0.0923 -0.1010  0.1699
    1W        W44283  11.512   7.483   8.675 -0.0250  0.0545 -0.3912
    1W        W44284  24.929  12.594   8.544  0.4094 -0.1552  0.1004
    1W        W44285  26.373  15.272   7.763 -0.1370 -0.1954  0.4410
    1W        W44286  29.244   5.073   0.272  0.1049 -0.0253 -0.1000
    1W        W44287  14.176  21.496   0.308 -0.1649 -0.2455 -0.2332
    1W        W44288  18.974   9.757   9.115  0.0197 -0.0416  0.2459
    1W        W44289   8.041  19.761   0.143 -0.0959 -0.2652  0.2257
    1W        W44290  25.362   1.412   8.291 -0.4276  0.2609  0.1531
    1W        W44291  15.880  29.833   0.856 -0.0155  0.1588 -0.1221
    1W        W44292  17.549  22.462   9.036  0.0411  0.0253 -0.2849
    1W        W44293  12.047  29.476   0.222  0.0402 -0.3947  0.1936
    1W        W44294  13.552  24.179   7.059  0.0701  0.0717  0.2788
    1W        W44295  21.842  11.281   5.601  0.0067 -0.2805 -0.2076
    1W        W44296   6.712  16.378   7.012 -0.2518  0.0012 -0.1638
    1W        W44297   6.785  12.896   7.476  0.4192 -0.0444  0.1800
    1W        W44298  13.266   7.898   7.746 -0.0364  0.0873  0.5000
    1W        W44299   7.383  23.579   0.973  0.0047 -0.2431  0.3693
    1W        W44300  15.072   6.268   8.873  0.4331 -0.0187  0.2071
    1W        W44301  15.159  10.658   9.033 -0.0401  0.2748 -0.0184
    1W        W44302  15.933   8.519   6.947  0.1104  0.0276  0.0862
    1W        W44303   1.442  15.158   1.797  0.2945  0.1080 -0.0170
    1W        W44304  12.425  22.910   6.977 -0.2283 -0.2033 -0.3222
    1W        W44305  21.306   3.427   9.268  0.1304  0.0541  0.2426
    1W        W44306  21.414   1.972   6.540  0.0135  0.0960 -0.1223
    1W        W44307  15.984  18.813   7.022  0.1565 -0.1670 -0.0638
    1W        W44308  23.168  22.229   6.731  0.1403  0.0427 -0.1257
    1W        W44309  19.556   8.165   0.116  0.1862 -0.0070  0.4005
    1W        W44310  24.293  14.267   8.881  0.2709  0.0515 -0.0538
    1W        W44311  23.347  23.259   6.942 -0.1830  0.0001  0.1208
    1W        W44312  26.193   1.630   3.604  0.0213 -0.1680  0.1494
    1W        W44313   9.351   7.999   1.592 -0.1615 -0.1033  0.3135
    1W        W44314  22.382  14.470   1.034 -0.0902  0.1141  0.1071
    1W        W44315   1.977  15.772   1.359 -0.1344  0.4034 -0.2416
    1W        W44316   5.084  20.780   6.734  0.2495  0.0030 -0.2984
    1W        W44317   9.557  21.170   7.696  0.3150  0.3405  0.2141
    1W        W44318  11.773  16.003   2.077 -0.1712 -0.1989 -0.0034
    1W        W44319  23.913  21.110   9.210 -0.0662  0.0668  0.3676
    1W        W44320  10.515  17.071   6.981  0.1982  0.1367 -0.0386
    1W        W44321  17.465  13.114   2.908  0.2307  0.0832 -0.2282
    1W        W44322  21.031   2.713   2.974 -0.1171  0.1672  0.3303
    1W        W44323   4.957  29.310   9.157  0.0840  0.2281  0.1769
    1W        W44324   8.610  10.524   7.623 -0.2379 -0.2974  0.1623
    1W        W44325  26.602   3.446   0.233  0.3121  0.4770  0.0683
    1W        W44326  17.700  17.077   0.958 -0.0040 -0.0734 -0.2296
    1W        W44327  14.466   7.687   7.189 -0.0602  0.0160  0.0173
    1W        W44328  17.850  11.593   0.013  0.0306 -0.0950  0.1040
    1W        W44329   5.071  28.918   7.857 -0.0026  0.1063  0.0595
    1W        W44330  13.277  23.083   8.323  0.1752  0.1270  0.4132
    1W        W44331  20.698  18.958   1.181  0.0139  0.1303 -0.2028
    1W        W44332  20.968  30.035   2.888 -0.2377  0.4458 -0.0497
    1W        W44333  26.957  24.478   6.737 -0.1362  0.0114  0.0367
    1W        W44334  18.024   3.260   8.165  0.4499  0.1028 -0.0056
    1W        W44335   6.943   7.437   0.491 -0.1987 -0.0967  0.1247
    1W        W44336   8.482   2.981   7.066  0.0978  0.2606 -0.1281
    1W        W44337   8.441  19.883   1.903  0.1450 -0.0030  0.1127
    1W        W44338   6.323  25.572   2.949 -0.0190 -0.2339  0.2211
    1W        W44339  28.446  22.265   6.641  0.1840  0.1591  0.1316
    1W        W44340  13.890  14.986   1.599 -0.3370 -0.2430  0.0158
    1W        W44341  11.431  18.857   2.042  0.3344  0.0116 -0.1187
    1W        W44342  19.609  21.331   8.793  0.3848 -0.0377  0.2740
    1W        W44343   5.893  16.230   6.764 -0.4861 -0.0518 -0.2375
    1W        W44344  14.364  14.749   1.561  0.1676 -0.0032 -0.0929
    1W        W44345   3.855  21.730   9.059  0.1526 -0.0627 -0.2172
    1W        W44346   9.207  20.956   8.402  0.1506 -0.0689 -0.0756
    1W        W44347  14.448  10.946   8.419  0.3844 -0.0276  0.1283
    1W        W44348  11.020   3.898   7.570 -0.0652  0.2595  0.0953
    1W        W44349   1.799   0.248   2.292 -0.0214  0.2291  0.1763
    1W        W44350  19.930  23.600   0.759 -0.2155 -0.0077 -0.1381
    1W        W44351  18.727   9.200   8.301  0.1238 -0.1632  0.1797
    1W        W44352  19.699  16.131   1.950  0.1120 -0.0504  0.2638
    1W        W44353   4.384  23.070   9.041 -0.0714  0.0181 -0.1992
    1W        W44354   5.431   9.986   7.250 -0.0238 -0.0461 -0.1407
    1W        W44355   9.144  20.616   1.370 -0.0352 -0.0481  0.0115
    1W        W44356  23.965  11.656   8.671  0.0283  0.0605  0.0687
    1W        W44357  11.794  20.298   9.000 -0.0533  0.0105  0.2094
    1W        W44358  29.602   2.406   1.678 -0.3890 -0.2423 -0.0494
    1W        W44359   6.980   0.925   8.662  0.2824  0.2849 -0.0589
    1W        W44360   3.865   0.567   0.800  0.1370 -0.1725  0.0727
    1W        W44361  26.378   8.854   7.459 -0.0863  0.2283 -0.0705
    1W        W44362  12.593   0.021   8.895 -0.0866  0.2186  0.1442
    1W        W44363  14.726   3.928   7.754 -0.3232  0.2416 -0.2136
    1W        W44364  28.964   0.810   1.018 -0.4091  0.0095 -0.2011
    1W        W44365   5.509  20.599   0.335  0.2347  0.1056 -0.0574
    1W        W44366  18.046  19.394   6.518 -0.0280  0.2748  0.0291
    1W        W44367  18.039   0.702   2.956 -0.0982  0.0806  0.3009
    1W        W44368  20.348  10.315   1.649 -0.0115 -0.0391 -0.0157
    1W        W44369  23.378  24.341   1.844  0.1668 -0.3690  0.0931
    1W        W44370  10.410  28.946   8.642 -0.0433  0.2034 -0.2867
    1W        W44371  28.151  20.606   0.034 -0.2729  0.0037 -0.0159
    1W        W44372  24.941  17.464   6.396 -0.3269 -0.1596 -0.0782
    1W        W44373   2.672  23.413   1.537 -0.0472 -0.3504  0.0866
    1W        W44374  25.073   8.686   9.010 -0.1148  0.0904  0.0839
    1W        W44375   7.668   0.080   8.269  0.0944  0.0073  0.3777
    1W        W44376   8.137  21.303   6.142 -0.1960  0.2056 -0.1043
    1W        W44377  25.404  28.387   2.781  0.2833 -0.0837 -0.0395
    1W        W44378  15.879  22.457   0.840 -0.5576  0.1601  0.1274
    1W        W44379  17.184   8.079   5.276 -0.0948 -0.3008  0.1154
    1W        W44380  25.503  17.124   0.847 -0.1604 -0.0026  0.1539
    1W        W44381  10.506   9.829   9.162  0.2204 -0.1343  0.0381
    1W        W44382   2.216  20.802   7.191 -0.0535 -0.3052  0.1545
    1W        W44383  21.102  14.074   8.933  0.0086  0.0280  0.1946
    1W        W44384   6.742  26.527   7.696 -0.2479 -0.2233 -0.0192
    1W        W44385  25.076  18.939   8.369  0.2378  0.0286 -0.0132
    1W        W44386   5.192  18.641   9.199 -0.0070 -0.1318  0.0281
    1W        W44387  16.784  21.227   1.922 -0.0360  0.1593 -0.0092
    1W        W44388   4.509  18.326   0.091 -0.1933  0.1131 -0.0439
    1W        W44389  17.550  27.451   9.163 -0.0483  0.1994 -0.2076
    1W        W44390  23.235  29.778   2.779  0.2329  0.5952  0.0943
    1W        W44391  12.371   9.767   4.174 -0.1603 -0.2809  0.2460
    1W        W44392  15.238   4.246   6.618 -0.1766 -0.2898 -0.1179
    1W        W44393  19.419  15.526   1.056 -0.2487  0.0950  0.1368
    1W        W44394  23.615  25.780   0.391  0.0388 -0.0019  0.1323
    1W        W44395  14.730  21.082   5.972  0.0595  0.1310 -0.1095
    1W        W44396  24.622  16.329   7.791 -0.0917 -0.0494  0.1016
    1W        W44397  18.776  13.398   7.108  0.3574  0.0233 -0.2097
    1W        W44398  30.221   0.227   2.517  0.1009 -0.2181 -0.2871
    1W        W44399  17.124   9.015   1.877  0.3298  0.0768  0.0793
    1W        W44400   0.757  27.177   8.208  0.0501  0.1170  0.2524
    1W        W44401   1.332   6.994   0.082 -0.2633 -0.1919 -0.0493
    1W        W44402  29.161   7.420   6.203  0.0682 -0.0034  0.0082
    1W        W44403  11.325  11.475   3.498  0.2238 -0.2305  0.1855
    1W        W44404   8.726   8.171   8.504  0.1650  0.1589  0.0165
    1W        W44405  27.298  20.680   7.820  0.0006  0.1992  0.2104
    1W        W44406   6.291  24.858   7.526 -0.0307  0.0451  0.0936
    1W        W44407   1.467  16.387   6.479  0.0474 -0.2174  0.1867
    1W        W44408   3.620   1.151   7.829  0.0799 -0.2059  0.1390
    1W        W44409   3.216  12.030   7.892  0.0435 -0.1315 -0.1221
    1W        W44410  16.353  10.840   6.580  0.2093 -0.2187 -0.0834
    1W        W44411  24.635  22.418   8.509 -0.0859  0.0158 -0.1042
    1W        W44412   7.457   2.450   7.833  0.1454  0.0075  0.1256
    1W        W44413  12.130   5.607   1.188  0.2971  0.0695  0.0180
    1W        W44414  28.106   1.406   0.790 -0.2448 -0.0709  0.0791
    1W        W44415  28.619   2.646   1.129  0.5372 -0.1912 -0.0027
    1W        W44416  21.304  10.458   8.529 -0.1592 -0.2695 -0.2982
    1W        W44417   5.460   1.388   1.912 -0.1526 -0.0261 -0.0001
    1W        W44418   0.679  14.807   8.974 -0.0127  0.0570 -0.0143
    1W        W44419  11.656   5.276   1.392  0.1106 -0.0892 -0.0202
    1W        W44420  28.102   5.145   8.912  0.0431  0.1930  0.2081
    1W        W44421  19.238   5.496   7.724 -0.0827  0.3779 -0.2877
    1W        W44422  19.652  21.009   6.116 -0.0447 -0.0525 -0.0686
    1W        W44423  15.163  26.418   9.180 -0.0958  0.2306 -0.0237
    1W        W44424  10.251  10.273   8.178  0.0489  0.3047  0.3166
    1W        W44425  11.357  29.145   8.722 -0.2935  0.0460 -0.1941
    1W        W44426   8.197  27.989   6.874 -0.1631  0.2500 -0.0506
    1W        W44427   5.169  22.350   8.665  0.0707 -0.1937 -0.2643
    1W        W44428  29.568   1.367   0.412 -0.1276  0.0608 -0.2193
    1W        W44429  18.498   8.839   6.521  0.2576  0.0594 -0.1693
    1W        W44430  29.316  16.017   8.512  0.0319  0.0694  0.0795
    1W        W44431   5.190  23.417   9.227 -0.1480 -0.2262  0.0445
    1W        W44432  29.174   3.137   8.614  0.1438 -0.1560 -0.1063
    1W        W44433  11.298  21.395   1.364  0.0600 -0.1909  0.0264
    1W        W44434   5.502  24.603   1.624  0.1649  0.2685 -0.0891
    1W        W44435  11.152  13.750   2.565  0.4370  0.1330  0.0574
    1W        W44436   5.905  11.827   0.186  0.1707  0.1268 -0.0614
    1W        W44437   0.144  29.188   7.856  0.0786 -0.0445 -0.3267
    1W        W44438   1.439  27.877   3.161 -0.1224  0.0870 -0.0586
    1W        W44439  21.279  26.289   6.368  0.2749 -0.1848 -0.0879
    1W        W44440  22.995  28.636   1.535 -0.1835 -0.1173 -0.2269
    1W        W44441  10.324  10.059   1.992  0.0908 -0.2935  0.2356
    1W        W44442  26.054  13.079   6.145  0.0166  0.2447  0.0158
    1W        W44443  12.432   3.439   1.735  0.1222 -0.0993  0.2529
    1W        W44444  15.696  22.623   1.442 -0.0601  0.1198 -0.1211
    1W        W44445   2.699   9.657   1.492  0.0945  0.2642 -0.0647
    1W        W44446  28.509   8.660   2.473  0.2985  0.0750 -0.0133
    1W        W44447  29.338  11.032   7.167  0.3478 -0.0193 -0.0785
    1W        W44448  25.364  12.772   6.630  0.2003 -0.1196  0.1506
    1W        W44449  16.212  28.626   6.796  0.0959 -0.0235  0.0761
    1W        W44450  13.774   2.246   3.578 -0.0954 -0.0972 -0.0900
    1W        W44451  22.058  10.851   1.993  0.0015  0.0275 -0.1563
    1W        W44452  18.931  10.534   7.389 -0.0944  0.0832 -0.1139
    1W        W44453  19.843   7.835   5.768 -0.2683  0.1143 -0.0581
    1W        W44454  15.413  19.962   8.089  0.0326 -0.1625 -0.2594
    1W        W44455  29.559  29.044   7.513  0.0842  0.0267 -0.0601
    1W        W44456  12.351  28.344   2.821  0.3369 -0.0829 -0.0426
    1W        W44457   1.825  15.413   9.231  0.1065 -0.1431  0.0694
    1W        W44458   7.773  20.282   6.762 -0.1808  0.1883  0.1752
    1W        W44459   7.359  20.592   7.622  0.3076  0.0648 -0.2162
    1W        W44460  17.757  17.948   0.047 -0.0439 -0.1075 -0.0149
    1W        W44461  25.797   9.206   1.747 -0.2670  0.1896  0.2212
    1W        W44462  18.209  24.491   2.228  0.1711  0.2004 -0.1564
    1W        W44463   1.874   2.797   2.626 -0.2155  0.0395  0.1461
    1W        W44464   1.429   9.516   1.895  0.0316  0.0963 -0.2382
    1W        W44465  21.183  22.045   0.973 -0.1085 -0.1598  0.1412
    1W        W44466  19.485  28.654   8.596 -0.0735  0.2079  0.1972
    1W        W44467   3.210  10.223   0.154  0.0744  0.0581  0.1308
    1W        W44468  16.290  20.049   8.037 -0.1735 -0.0259 -0.1634
    1W        W44469  29.956  19.723   9.088 -0.0828  0.1436  0.1103
    1W        W44470  26.637  10.935   8.604 -0.0821 -0.1908 -0.2368
    1W        W44471  29.611   7.509   7.713 -0.2705 -0.2374 -0.0002
    1W        W44472   4.404  25.406   6.492 -0.0846 -0.3858 -0.1586
    1W        W44473   9.851   4.472   7.992  0.1455 -0.2792  0.0044
    1W        W44474  10.383  28.572   7.831  0.1591 -0.1179 -0.0283
    1W        W44475   7.453  12.121   7.430  0.2033  0.4431  0.1941
    1W        W44476  25.013  27.456   0.198 -0.2322  0.1639  0.0579
    1W        W44477  17.193  23.680   2.229 -0.1323 -0.0387  0.0542
    1W        W44478  15.180  14.018   2.641 -0.0625 -0.0942  0.1007
    1W        W44479  16.605  22.898   1.987  0.3163  0.2880 -0.0996
    1W        W44480  23.725  26.618   1.198  0.3323 -0.1560 -0.4095
    1W        W44481   3.190  12.348   2.165  0.1038 -0.0309 -0.3148
    1W        W44482   0.703  21.286   8.217  0.1093  0.0352 -0.0470
    1W        W44483  11.499  14.924   7.845 -0.2273  0.0687 -0.1168
    1W        W44484   9.013   2.609   8.360  0.1909 -0.0120  0.2305
    1W        W44485  26.010  27.105   7.309 -0.2494  0.0886  0.0733
    1W        W44486   4.471  14.866   8.199 -0.4429 -0.2597 -0.1177
    1W        W44487  24.183   6.478   3.275  0.1165  0.3903 -0.0946
    1W        W44488  20.624   2.432   7.113  0.1335  0.0361  0.1954
    1W        W44489   8.327  12.484   6.451  0.2919 -0.3240  0.1765
    1W        W44490  20.459  11.105   6.683  0.4069 -0.1171 -0.1131
    1W        W44491  29.405  29.725   3.745 -0.0165 -0.1244 -0.1346
    1W        W44492  12.099  24.714   1.795  0.0017  0.1920 -0.0194
    1W        W44493   5.763  28.063   3.158 -0.1303  0.1772  0.0831
    1W        W44494  12.706   9.816   8.305 -0.0017  0.2119  0.0058
    1W        W44495   6.385  20.151   5.747 -0.3640  0.3742  0.2948
    1W        W44496  22.221   9.020   6.999  0.0705 -0.0570  0.1202
    1W        W44497  13.964   8.445   2.717  0.1195  0.1433 -0.0340
    1W        W44498  30.245  18.886   0.934  0.0711  0.2492 -0.0454
    1W        W44499  18.062  16.315   1.479  0.1673 -0.1275 -0.0067
    1W        W44500  24.223  20.631   1.416 -0.0195  0.0947 -0.0851
    1W        W44501  27.558  10.419   2.018 -0.2926  0.0095 -0.0901
    1W        W44502  24.577  11.151   7.038 -0.1539 -0.1317 -0.0464
    1W        W44503  15.217   0.023   0.657  0.0601 -0.1730  0.2656
    1W        W44504  23.730   3.716   8.095 -0.0960 -0.2287 -0.0728
    1W        W44505  20.860   5.988   8.637  0.1235  0.0209  0.2025
    1W        W44506   8.024  13.140   7.075 -0.0480 -0.2140  0.4679
    1W        W44507   6.601  11.113   1.084  0.0702 -0.0346  0.1335
    1W        W44508  17.834  12.935   2.608 -0.0658 -0.4709 -0.0465
    1W        W44509  26.518  29.562   1.962  0.1587 -0.0403  0.1180
    1W        W44510   1.113  21.037   8.319 -0.0781 -0.0525  0.0509
    1W        W44511  28.600  11.413   7.330 -0.1507 -0.0367 -0.0493
    1W        W44512  12.725  23.029   8.562 -0.0658  0.1773  0.1036
    1W        W44513   9.550  17.776   0.551 -0.0247 -0.1075  0.0559
    1W        W44514  16.448  29.647   6.437 -0.3251  0.1048  0.2794
    1W        W44515  14.989  24.165   8.541 -0.0834  0.0502 -0.2326
    1W        W44516   3.444   8.909   0.556  0.2241  0.2153  0.3628
    1W        W44517   5.217  19.792   7.076 -0.0666 -0.0837  0.0907
    1W        W44518  24.020  10.436   9.163 -0.1649 -0.2666  0.1690
    1W        W44519   7.622  16.155   7.157 -0.0708 -0.1077 -0.4320
    1W        W44520  22.304  28.056   7.593  0.0932 -0.0922 -0.0324
    1W        W44521   6.748  20.972   6.880  0.2172  0.1425 -0.1427
    1W        W44522   5.431  18.789   1.347  0.3260 -0.0518 -0.2725
    1W        W44523  10.006  24.652   6.611 -0.0382 -0.0661  0.2200
    1W        W44524  28.548  17.222   8.979 -0.1596  0.0149  0.0169
    1W        W44525   5.126   3.069   8.925  0.2646 -0.2578  0.0490
    1W        W44526   6.602  28.231   1.477 -0.0528 -0.1636 -0.1482
    1W        W44527  11.929   1.357   6.007  0.1675  0.1835 -0.0384
    1W        W44528  13.940  11.253   0.514  0.1151  0.2549 -0.3419
    1W        W44529   1.603  21.327   1.701  0.2097 -0.0640  0.1281
    1W        W44530  18.056  17.818   1.226  0.1743  0.1897 -0.1230
    1W        W44531   9.152  17.008   1.986  0.2109 -0.1341  0.0173
    1W        W44532  10.196  17.191   2.019 -0.0920 -0.0540  0.1402
    1W        W44533  21.353  13.532   1.710 -0.3461  0.3171 -0.0849
    1W        W44534   0.830  19.567   0.292  0.0517 -0.0671  0.1371
    1W        W44535   8.214  30.100   0.151  0.0897  0.0960 -0.2264
    1W        W44536  21.438  20.968   0.372 -0.2108  0.1014  0.1101
    1W        W44537  25.588  15.161   0.573 -0.0452  0.1539 -0.0155
    1W        W44538  22.926   1.515   1.365 -0.1202 -0.0851 -0.0465
    1W        W44539   3.226  22.070   7.836  0.2767  0.3334  0.2406
    1W        W44540  30.110  13.019   0.788  0.0633 -0.1662 -0.1028
    1W        W44541  22.132  11.822   1.093 -0.1840  0.0749 -0.0730
    1W        W44542  22.243  20.535   6.570 -0.0376  0.0297  0.3226
    1W        W44543   3.886  26.372   9.153  0.0191  0.0756  0.0883
    1W        W44544   3.161   9.445   7.886 -0.2911  0.2128  0.0738
    1W        W44545  17.361   3.607   7.528  0.1081 -0.0060 -0.0893
    1W        W44546   0.496   1.576   3.105 -0.0322 -0.1403 -0.0446
    1W        W44547   3.025  11.977   7.074  0.1719 -0.1059  0.2329
    1W        W44548  23.729  10.890   8.962  0.0527 -0.0015 -0.0612
    1W        W44549  12.644  22.348   8.490  0.0688  0.0502 -0.0779
    1W        W44550   7.011  21.202   0.106 -0.4038  0.3709 -0.0455
    1W        W44551  19.052   4.734   0.548  0.1284  0.1217  0.0558
    1W        W44552  24.583   4.975   0.192  0.0418 -0.4939  0.2446
    1W        W44553  13.821  22.587   7.778  0.0492  0.0480  0.0013
    1W        W44554   1.780  30.041   9.176 -0.2366  0.0519 -0.0959
    1W        W44555  12.315  15.073   9.254  0.1353  0.0526 -0.1837
    1W        W44556  13.978  14.469   0.243 -0.2054 -0.0250  0.0716
    1W        W44557  18.763  18.803   0.587  0.4288  0.0912 -0.0844
    1W        W44558  13.930  23.808   0.525 -0.0207 -0.2007  0.0905
    1W        W44559  24.129   5.599   8.755  0.0305  0.4223  0.2282
    1W        W44560  17.948  28.517   7.347  0.4199 -0.0863 -0.1684
    1W        W44561  13.745  22.027   8.633  0.2598  0.1109  0.2037
    1W        W44562  10.629  11.966   2.256  0.3426 -0.1559  0.1644
    1W        W44563  13.953   6.741   5.908 -0.0454  0.1102  0.0542
    1W        W44564  16.580  28.750   2.399 -0.0511 -0.1007  0.1072
    1W        W44565  28.987  17.661   0.347  0.2722  0.0543 -0.1654
    1W        W44566   9.258  24.266   7.748  0.0251 -0.1649 -0.0843
    1W        W44567   1.181   5.235   7.239 -0.0085  0.5058 -0.0457
    1W        W44568  17.680  19.745   7.692  0.0359  0.0406 -0.1218
    1W        W44569  25.160  26.768   3.406 -0.0350  0.1331 -0.0862
    1W        W44570   1.785   4.285   8.419  0.2812 -0.0569 -0.1185
    1W        W44571  19.976  22.689   0.974  0.1140 -0.0456 -0.0789
    1W        W44572   8.921  16.808   8.839 -0.0522 -0.1358  0.2935
    1W        W44573  12.570   1.993   1.792 -0.0595  0.3347  0.0182
    1W        W44574  26.524   2.310   1.851 -0.1073  0.0102 -0.3013
    1W        W44575  18.782  28.791   2.156  0.3345  0.0362 -0.0567
    1W        W44576   7.531  11.832   3.000 -0.2077 -0.1392  0.0114
    1W        W44577  21.590  26.928   8.865  0.1433  0.0286 -0.1408
    1W        W44578  20.104   2.160   2.413  0.1650  0.1170  0.2616
    1W        W44579  24.632   8.211   7.367 -0.1131 -0.0596  0.0200
    1W        W44580  17.855  27.155   8.447  0.0262 -0.3467 -0.0803
    1W        W44581   7.426  12.208   2.087  0.0367  0.3090 -0.1168
    1W        W44582  13.982   2.429   9.145  0.1651 -0.1122  0.2327
    1W        W44583  11.792  26.458   6.232 -0.1974  0.1207 -0.0303
    1W        W44584   9.187  27.011   7.755 -0.2745 -0.1645  0.0899
    1W        W44585   3.968  27.596   9.191  0.4443 -0.1404 -0.3713
    1W        W44586   1.555  16.333   8.197  0.1526  0.0838  0.1335
    1W        W44587   8.074   3.672   0.365 -0.0289  0.2239 -0.4314
    1W        W44588  24.327  24.377   7.446  0.2480 -0.3408  0.1759
    1W        W44589  13.147  16.959   6.858  0.0049 -0.2331  0.4961
    1W        W44590   1.610  24.158   6.771 -0.0863  0.1391  0.0037
    1W        W44591   4.362   1.420   2.763  0.1677  0.1233 -0.3342
    1W        W44592  22.830  19.009   9.124  0.1954 -0.1630 -0.3622
    1W        W44593  21.113   4.308   2.008 -0.2769  0.0158  0.1023
    1W        W44594  25.847  28.808   0.619  0.0602  0.1513 -0.1262
    1W        W44595   6.994   4.165   1.543  0.1676  0.1118  0.0516
    1W        W44596  29.444  25.289   7.679 -0.3423  0.0911  0.0675
    1W        W44597  11.292  11.584   1.969  0.1546  0.0653 -0.1943
    1W        W44598  19.070   1.855   1.017  0.0271 -0.3861  0.0872
    1W        W44599  23.555   7.921   0.223 -0.1444 -0.1451 -0.0909
    1W        W44600   9.032  12.348   2.391 -0.2502  0.2267 -0.3561
    1W        W44601   6.598  27.933   2.884  0.1016  0.0510  0.0092
    1W        W44602  26.443  26.831   8.641 -0.1282 -0.0604 -0.0287
    1W        W44603  17.990  27.793   2.621  0.1312  0.0768  0.2505
    1W        W44604  29.660  15.798   7.041  0.0873 -0.0818  0.2462
    1W        W44605   5.490  18.156   6.175  0.4266  0.1011 -0.0096
    1W        W44606  13.444  15.750   7.051  0.1771  0.0608  0.4376
    1W        W44607  14.839   9.120   0.753 -0.0707  0.2065  0.0230
    1W        W44608   4.589  27.127   7.715  0.0850 -0.1996  0.0773
    1W        W44609  23.753   7.484   5.849 -0.0545 -0.3131 -0.2824
    1W        W44610  13.281   5.659   6.366 -0.1881  0.0492 -0.0852
    1W        W44611  26.715   3.694   2.577 -0.0657  0.4625  0.0965
    1W        W44612  21.083   1.310   2.458  0.2489  0.1440  0.0822
    1W        W44613  21.099  25.939   8.057  0.0662 -0.1337  0.0139
    1W        W44614   0.047  23.349   7.798  0.0349  0.0241 -0.1011
    1W        W44615  25.968  25.874   0.747  0.1179 -0.2076 -0.3568
    1W        W44616  29.120  23.129   1.404  0.0048  0.0508  0.1630
    1W        W44617  13.296  17.828   0.332 -0.0099 -0.3762 -0.1001
    1W        W44618   5.710  23.345   1.682  0.1037 -0.0201 -0.2121
    1W        W44619  12.053   4.336   1.413  0.0475  0.1598 -0.0845
    1W        W44620   5.188  14.041   0.593 -0.0560  0.1422  0.1429
    1W        W44621  28.019   2.152   8.340 -0.1880  0.2040 -0.0885
    1W        W44622  13.054  27.116   7.989 -0.2322  0.2216  0.0052
    1W        W44623   6.407   8.424   7.392 -0.1711 -0.0513  0.0453
    1W        W44624  24.906   0.703   6.871 -0.3934 -0.1247  0.1106
    1W        W44625   5.427   1.988   8.054 -0.1090  0.0293 -0.1784
    1W        W44626  19.118   7.914   2.350  0.0567  0.1310  0.0847
    1W        W44627  19.288  27.957   2.445  0.1184 -0.1060  0.1752
    1W        W44628  25.099  25.614   1.076  0.2709 -0.1551  0.0359
    1W        W44629   1.879  24.532   1.473  0.1493 -0.0413  0.2864
    1W        W44630  21.706   5.135   7.123 -0.1429 -0.1105 -0.5144
    1W        W44631  23.062  13.419   6.348  0.0011  0.0986  0.1194
    1W        W44632  21.903   2.166   2.614  0.0404 -0.2546 -0.0706
    1W        W44633   3.682  19.808   8.457 -0.0277 -0.3469  0.0717
    1W        W44634   0.800  16.039   1.986  0.0953  0.1117 -0.1461
    1W        W44635  29.802  16.708   6.712  0.0184  0.2045  0.1965
    1W        W44636   2.012  17.050   6.845 -0.2779  0.0372 -0.5573
    1W        W44637   2.947  10.328   8.265 -0.0181 -0.0902  0.1207
    1W        W44638  24.384  27.801   7.364 -0.0913  0.1196  0.2744
    1W        W44639   4.661  23.413   8.075 -0.0398 -0.1257 -0.0070
    1W        W44640   7.329  23.941   1.428 -0.0347  0.2464 -0.1110
    1W        W44641  14.954  23.670   7.505 -0.0153  0.1227  0.1781
    1W        W44642   7.659  11.241   2.543  0.3456  0.2358  0.2447
    1W        W44643  24.419  20.453   8.660  0.0639  0.1480  0.0916
    1W        W44644  15.459   6.719   8.181 -0.4532 -0.3153  0.0040
    1W        W44645  10.645  28.877   2.841 -0.2280  0.1708 -0.2195
    1W        W44646   1.088  12.275   0.716  0.0847  0.1693 -0.0761
    1W        W44647   8.089   8.739   2.197  0.0242 -0.1628  0.0430
    1W        W44648  17.990   1.744   6.644  0.1700  0.0546 -0.1163
    1W        W44649  26.487  27.365   8.155 -0.3325  0.0081 -0.2167
    1W        W44650   8.899  16.209   8.562  0.3514 -0.0163 -0.2323
    1W        W44651  13.455   8.861   6.705  0.3265  0.0965 -0.0720
    1W        W44652  11.459  26.699   8.307  0.1799  0.1621 -0.2653
    1W        W44653  16.757  25.613   1.582 -0.2027  0.1467  0.0664
    1W        W44654   6.020  17.587   7.230 -0.2531 -0.2597  0.0865
    1W        W44655  12.937  22.986   6.921  0.0661  0.2432 -0.3001
    1W        W44656  20.900   7.154   1.565  0.2904  0.1515 -0.2014
    1W        W44657   5.047  19.150   1.568 -0.0028  0.0635 -0.1745
    1W        W44658   7.975   7.488   2.258  0.0008  0.1783 -0.0396
    1W        W44659   4.300  21.638   1.268  0.0717 -0.1635 -0.1023
    1W        W44660  19.883  18.618   5.627  0.0114 -0.0948  0.0201
    1W        W44661  29.572   9.317   0.554 -0.0049  0.0527 -0.0100
    1W        W44662  22.501   8.748   6.058 -0.0598 -0.1246  0.1304
    1W        W44663  22.445  29.502   8.696  0.1461  0.0470  0.0292
    1W        W44664  22.922  13.439   0.483  0.3273  0.2519  0.3534
    1W        W44665  23.660  10.417   7.554  0.0863  0.2230 -0.1150
    1W        W44666  26.606   0.886   0.066 -0.1983  0.1657 -0.2473
    1W        W44667  17.898   1.046   9.154 -0.0666 -0.0025 -0.0837
    1W        W44668  27.097  10.878   1.019  0.1227  0.1807 -0.1728
    1W        W44669  29.953  11.119   1.910 -0.0505 -0.3737 -0.0318
    1W        W44670  26.130  27.678   3.844  0.2100 -0.1870 -0.2801
    1W        W44671  26.806   4.078   4.072  0.1129 -0.0496 -0.1632
    1W        W44672  12.035  10.851   9.057  0.0374  0.4117  0.1923
    1W        W44673  10.031  26.692   1.563 -0.2235 -0.0870  0.1949
    1W        W44674   0.621   0.939   2.625  0.1127  0.3906 -0.0991
    1W        W44675   8.678  15.517   7.828 -0.1363 -0.0968 -0.1170
    1W        W44676  20.747  24.956   0.944  0.0478  0.1154  0.1415
    1W        W44677  27.420  17.747   6.187  0.2580 -0.1756 -0.1663
    1W        W44678  10.781  11.798   1.831  0.2356 -0.0398 -0.3434
    1W        W44679  21.478   9.735   0.112  0.1124 -0.2667  0.0550
    1W        W44680  17.878  22.868   0.081  0.0648 -0.1530  0.1475
    1W        W44681   8.361  15.681   7.477  0.2771  0.0450  0.0832
    1W        W44682  12.668  16.869   7.651 -0.0166 -0.1444  0.0309
    1W        W44683  23.787   7.514   8.669  0.2679  0.1495  0.0622
    1W        W44684  20.580  13.765   7.574 -0.0618 -0.0734 -0.0336
    1W        W44685  17.869  30.209   0.621  0.0444  0.0139 -0.3395
    1W        W44686  30.009  25.901   7.748 -0.0533  0.0756 -0.2012
    1W        W44687  21.063   9.502   6.236  0.1419 -0.2732  0.0208
    1W        W44688   2.788  19.110   0.668  0.1337 -0.1286 -0.1280
    1W        W44689  15.753  17.719   6.299  0.4180 -0.0149 -0.3983
    1W        W44690   4.641  16.059   6.502  0.0894  0.1669  0.3329
    1W        W44691  12.996  26.756   6.519 -0.0458 -0.2294  0.0272
    1W        W44692  11.150   7.119   6.348 -0.0537  0.0584 -0.1930
    1W        W44693  26.076  21.091   7.611  0.1435 -0.0029 -0.2413
    1W        W44694   3.664  28.930   6.883  0.2968  0.0266 -0.4442
    1W        W44695  12.096  12.484   8.907  0.0353 -0.0439  0.0938
    1W        W44696   8.864   8.486   2.914  0.0756 -0.1481 -0.0827
    1W        W44697   0.412  13.543   6.858  0.0683 -0.2167  0.0206
    1W        W44698   7.020   3.822   1.168  0.0019  0.1946 -0.0370
    1W        W44699  13.596  29.416   7.288  0.2229  0.0495  0.1961
    1W        W44700   1.598   4.619   7.374 -0.0894  0.1433 -0.2458
    1W        W44701  25.578   6.207   0.766  0.3231  0.0479  0.0854
    1W        W44702   3.829   4.093   8.533  0.2556  0.1473  0.1464
    1W        W44703  13.167  15.980   1.335  0.0611 -0.2908  0.0938
    1W        W44704  19.725  10.892   2.257  0.0370  0.1070  0.0694
    1W        W44705  21.563  19.812   6.242 -0.0662 -0.1410 -0.1545
    1W        W44706   2.331   5.314   0.171  0.3201 -0.0720  0.0626
    1W        W44707  29.461  13.160   1.432  0.1278 -0.1088  0.0873
    1W        W44708   9.598   1.135   1.225 -0.1198  0.0704 -0.0701
    1W        W44709  24.966  21.619   0.350 -0.3634  0.0237 -0.1281
    1W        W44710  20.435  26.359   2.535  0.0283  0.3552 -0.3584
    1W        W44711  12.959  16.728   0.540  0.0477  0.0081 -0.0344
    1W        W44712   1.711  29.204   8.286 -0.2116  0.0045 -0.2988
    1W        W44713  11.473   1.078   0.056  0.0767 -0.5291  0.1895
    1W        W44714   9.139   0.595   6.548  0.0093  0.1438 -0.1341
    1W        W44715  17.971  18.103   5.554 -0.0847  0.0745  0.1777
    1W        W44716  27.344   8.158   1.686 -0.1044 -0.0483  0.1970
    1W        W44717   3.149  27.841   1.070  0.0843 -0.2600  0.2174
    1W        W44718  12.735   7.090   1.197  0.2595  0.0355  0.0053
    1W        W44719  14.982  23.843   8.939  0.3332 -0.0982  0.4194
    1W        W44720   8.240  28.901   0.463 -0.2039  0.2628 -0.0450
    1W        W44721  24.583   4.559   1.165 -0.2079 -0.0712 -0.0151
    1W        W44722  11.929  15.979   2.554  0.0527 -0.0984  0.2781
    1W        W44723   7.166  13.454   7.565  0.3641  0.1603 -0.1862
    1W        W44724  26.240  24.890   6.268 -0.0554 -0.0334 -0.0158
    1W        W44725  28.213  12.346   1.122 -0.3412  0.1472 -0.0473
    1W        W44726  15.211  24.158   2.414  0.0612 -0.0440  0.0012
    1W        W44727   7.343  11.250   7.902 -0.0530 -0.2528  0.3661
    1W        W44728   5.426   6.505   2.555  0.0535 -0.1904  0.0488
    1W        W44729  30.159  10.299   1.417  0.3666 -0.1516 -0.2591
    1W        W44730  15.545  27.576   8.360  0.3170 -0.1427  0.1209
    1W        W44731   3.874   4.093   1.889 -0.1239  0.1401 -0.0570
    1W        W44732  13.010   1.533   2.410 -0.2514  0.0230  0.0219
    1W        W44733  10.931  26.731   6.482 -0.0128 -0.0958 -0.2385
    1W        W44734   2.562  24.450   2.707 -0.2918  0.1566  0.0682
    1W        W44735  23.751  17.879   1.276  0.3879 -0.1512 -0.1344
    1W        W44736   0.757  13.951   0.128  0.1100 -0.0816 -0.1870
    1W        W44737   3.989   8.179   8.596  0.2376  0.1889 -0.3282
    1W        W44738   5.427  12.657   9.128  0.2026 -0.4741 -0.1528
    1W        W44739  24.486   2.890   7.658  0.1749 -0.2297  0.1992
    1W        W44740   9.922  17.096   8.791  0.0724  0.0698 -0.1757
    1W        W44741  11.212  18.187   6.319  0.4724  0.0373  0.0869
    1W        W44742  12.141  24.712   6.831 -0.0983 -0.0992 -0.0524
    1W        W44743  28.430  24.350   1.815 -0.1435  0.0595 -0.0468
    1W        W44744   9.340  10.359   9.067  0.0568  0.2672 -0.2080
    1W        W44745  12.641  23.189   9.039 -0.5041  0.3122 -0.0693
    1W        W44746  19.543  18.348   0.505 -0.0408 -0.1200  0.1536
    1W        W44747  27.190   5.809   7.546  0.1445  0.1348 -0.0097
    1W        W44748  10.378  22.255   7.001 -0.0438 -0.0707  0.3224
    1W        W44749   4.285   7.364   6.740  0.3142  0.0961 -0.0158
    1W        W44750  23.151  11.055   6.229 -0.1204 -0.0858  0.0008
    1W        W44751  23.925  17.428   7.873  0.2026 -0.3264 -0.2075
    1W        W44752  16.188  11.619   0.875 -0.2197  0.0059  0.0355
    1W        W44753  20.685   9.876   7.538 -0.0787  0.1128  0.3004
    1W        W44754  19.467   4.630   2.785 -0.1736 -0.0891  0.0951
    1W        W44755  16.947   8.761   0.519  0.1099  0.2502 -0.0713
    1W        W44756  23.377   8.324   8.255 -0.0575 -0.2743 -0.0579
    1W        W44757  23.176   9.263   8.705 -0.2878  0.1748  0.2345
    1W        W44758  23.583   3.479   2.077  0.3245 -0.0130 -0.2484
    1W        W44759   1.391  22.078   0.781 -0.0233 -0.1052 -0.0250
    1W        W44760  12.692  22.273   7.587  0.1753 -0.0989  0.4343
    1W        W44761  10.538  22.821   5.501 -0.1428  0.1861  0.3451
    1W        W44762   2.252  28.187   1.764 -0.1820  0.1495 -0.4197
    1W        W44763   9.368   4.070   2.963  0.1693 -0.1102  0.1421
    1W        W44764  24.606  10.718   2.489  0.1939  0.1294 -0.0328
    1W        W44765  26.221  20.434   8.318 -0.0627  0.0741  0.1459
    1W        W44766  27.954  20.371   8.182  0.1268  0.0368 -0.0777
    1W        W44767   5.829  21.550   0.817 -0.0520 -0.0169  0.0959
    1W        W44768   4.520   0.085   0.510 -0.2717 -0.2629  0.0422
    1W        W44769  27.256  28.539   3.834 -0.0383  0.1912  0.0091
    1W        W44770   3.809   8.099   2.219  0.1036  0.1086 -0.0165
    1W        W44771  17.573   5.710   6.838  0.2239  0.0824 -0.2165
    1W        W44772  24.498   6.373   2.906 -0.1233  0.2300  0.1906
    1W        W44773  23.678  13.673   1.466 -0.0214 -0.1778  0.3146
    1W        W44774  23.712   3.657   0.275 -0.1592  0.0650 -0.0947
    1W        W44775  23.509  11.931   9.223 -0.0832 -0.0577  0.1772
    1W        W44776  28.783  10.316   1.127  0.1322  0.4367 -0.0573
    1W        W44777  14.661  17.401   6.869  0.2734 -0.1909  0.0946
    1W        W44778  10.725  25.380   7.763 -0.3637 -0.0021  0.0144
    1W        W44779  13.138  15.077   2.139 -0.0597 -0.1896 -0.4130
    1W        W44780   8.791  21.954   0.443 -0.0064 -0.1870  0.2047
    1W        W44781   0.046  13.349   0.522  0.0076 -0.1003  0.0669
    1W        W44782   6.261  14.246   1.489  0.1223  0.1275  0.1114
    1W        W44783  28.232  26.304   6.813  0.1417 -0.0131 -0.0727
    1W        W44784  11.822  26.615   2.979 -0.2548  0.1609 -0.0544
    1W        W44785  20.826  13.457   3.017  0.1207  0.0514  0.0460
    1W        W44786   8.842  12.350   8.723  0.5448  0.1781 -0.0962
    1W        W44787   9.776  18.329   8.907 -0.2546  0.0845  0.0618
    1W        W44788  29.736  12.780   9.218  0.2814 -0.4501  0.6518
    1W        W44789  22.615  11.676   5.955  0.3437  0.0773  0.1324
    1W        W44790   4.631  30.010   1.883 -0.0660  0.0454  0.1041
    1W        W44791   3.332  21.461   1.312  0.1268  0.3663 -0.5720
    1W        W44792   2.474  25.535   0.078 -0.2722  0.2754  0.1639
    1W        W44793   4.203   5.812   0.754  0.0747  0.0382  0.1257
    1W        W44794  21.566   7.265   8.865  0.1636  0.2349 -0.0201
    1W        W44795  20.593   2.408   0.472  0.2045 -0.1505  0.1485
    1W        W44796  22.778  23.464   0.351 -0.3242 -0.2400  0.1066
    1W        W44797  25.153  27.731   2.301  0.2549  0.1523 -0.0614
    1W        W44798  15.556  13.319   1.242  0.0100 -0.3015 -0.1261
    1W        W44799  11.195  25.020   7.973  0.1065 -0.0574  0.0806
    1W        W44800   6.309  11.666   1.213  0.1176 -0.0109  0.2543
    1W        W44801  18.628   6.225   2.704 -0.1669  0.0062  0.1239
    1W        W44802  17.992  22.229   7.468 -0.1977  0.1234 -0.0114
    1W        W44803  12.781  15.912   0.504  0.2150  0.0134 -0.1837
    1W        W44804  15.737  10.908   1.967 -0.0111 -0.0736  0.0358
    1W        W44805  18.173   8.303   7.647 -0.0728  0.0526 -0.0216
    1W        W44806  14.205   6.819   0.867 -0.3676  0.2497  0.1254
    1W        W44807  14.945  14.571   9.209  0.0549 -0.1211  0.3140
    1W        W44808   9.427   0.900   3.323  0.1268 -0.4603  0.3081
    1W        W44809   0.394  19.450   7.037  0.0189 -0.1042 -0.1971
    1W        W44810  14.832  19.925   2.020 -0.1890  0.0183 -0.1957
    1W        W44811   1.077  19.073   6.069 -0.1298  0.0950  0.1674
    1W        W44812  12.830  20.419   0.707 -0.1477 -0.0009  0.0067
    1W        W44813  24.128  21.227   2.399 -0.0611  0.0631  0.2394
    1W        W44814   9.450   7.040   8.702 -0.0535 -0.1172 -0.2572
    1W        W44815  28.511  21.325   8.503 -0.1872  0.3445  0.0623
    1W        W44816  15.302   4.069   6.178  0.2561 -0.0054 -0.2694
    1W        W44817   7.831  27.235   7.141 -0.0019 -0.3248 -0.1680
    1W        W44818  26.049  22.212   1.266  0.1696  0.1249  0.0331
    1W        W44819  14.426  14.386   3.103 -0.2478  0.1297 -0.2121
    1W        W44820  20.195   8.092   1.005 -0.1378  0.0734 -0.1428
    1W        W44821  25.599  22.349   9.081 -0.0027 -0.1173 -0.0842
    1W        W44822  29.081  19.265   8.269  0.0610  0.0252 -0.1294
    1W        W44823  30.325  20.022   8.186  0.0293 -0.1068 -0.2111
    1W        W44824  24.941  16.708   1.352 -0.1166  0.2828 -0.4837
    1W        W44825  27.126  11.179   1.495 -0.0756  0.1606 -0.1543
    1W        W44826  22.884  15.337   6.688  0.2226 -0.0462 -0.1136
    1W        W44827  23.681  11.553   0.852  0.2842 -0.0533 -0.3483
    1W        W44828  15.195  17.846   6.344 -0.0614 -0.0551  0.0053
    1W        W44829  25.983   0.433   2.163 -0.0650 -0.0070 -0.2322
    1W        W44830  27.430   7.919   8.250 -0.0090 -0.2119 -0.0270
    1W        W44831  17.106  19.644   1.797 -0.0904 -0.1011 -0.2069
    1W        W44832  30.165   2.073   7.544 -0.0327  0.0073  0.2764
    1W        W44833  28.392  28.076   3.395 -0.2128 -0.1674 -0.1070
    1W        W44834   3.792   5.763   7.380 -0.2979 -0.0185 -0.0170
    1W        W44835   5.058   0.420   8.099  0.0328  0.2851  0.0842
    1W        W44836   5.668  30.085   0.226 -0.3655  0.0725 -0.0442
    1W        W44837   2.612  29.123   1.240 -0.2155  0.0503  0.0063
    1W        W44838  19.343  25.390   1.316 -0.0402 -0.0429 -0.0228
    1W        W44839  22.982  22.653   2.844 -0.1032 -0.1745  0.0565
    1W        W44840  21.548  21.197   0.861 -0.1383 -0.1041 -0.1841
    1W        W44841   5.684   2.798   2.986 -0.3335  0.0365 -0.3742
    1W        W44842   5.190   2.050   0.745 -0.1126 -0.1061 -0.3116
    1W        W44843  23.718  12.340   6.417  0.1004 -0.0733 -0.1029
    1W        W44844   9.873  23.352   7.869  0.0872 -0.0212  0.1989
    1W        W44845  24.025   0.396   2.201 -0.2269  0.1266 -0.1404
    1W        W44846  29.731  29.715   1.497 -0.2156  0.2322 -0.3356
    1W        W44847  29.703  16.970   7.661 -0.2203 -0.0358  0.0616
    1W        W44848   7.206   3.716   1.694 -0.1424  0.0075 -0.0285
    1W        W44849  13.431  15.222   1.708  0.0996  0.3264 -0.1379
    1W        W44850  24.287   5.324   9.268 -0.2292 -0.1312 -0.0951
    1W        W44851  24.311   9.149   0.117 -0.1366  0.1347  0.3497
    1W        W44852  25.951   1.465   2.838 -0.0754  0.0960  0.3041
    1W        W44853  17.803  14.366   0.524  0.0951  0.2126 -0.0092
    1W        W44854  15.085   0.125   1.428 -0.2543  0.3795 -0.2150
    1W        W44855  26.733   5.118   8.072  0.1105  0.0169  0.1489
    1W        W44856   2.697  25.219   1.566  0.2756  0.0577 -0.1764
    1W        W44857  25.077   6.615   8.294 -0.4029 -0.0459  0.3822
    1W        W44858   3.571   5.160   2.464  0.1713  0.0423  0.0650
    1W        W44859   9.488  22.135   2.406  0.0882 -0.3452  0.1192
    1W        W44860  27.092  18.331   7.534 -0.3110 -0.0008  0.1467
    1W        W44861  23.750  26.925   6.767  0.1461 -0.2699 -0.1496
    1W        W44862   0.509  24.346   9.169 -0.1692 -0.0261 -0.3505
    1W        W44863   0.890  16.085   7.606 -0.2673 -0.1900  0.1457
    1W        W44864  11.497  21.877   8.354 -0.1528 -0.1361  0.1124
    1W        W44865  18.433  11.325   9.261 -0.3665  0.1855 -0.1054
    1W        W44866   0.334  28.689   8.720  0.2288 -0.0628  0.0575
    1W        W44867  14.257   6.060   7.277 -0.1022 -0.1479  0.1570
    1W        W44868  19.445   7.140   8.416 -0.3275  0.1781 -0.0220
    1W        W44869  26.487  13.559   1.171 -0.1282 -0.2162  0.3522
    1W        W44870  12.137  21.716   8.894 -0.1138 -0.0575 -0.1153
    1W        W44871   5.999  25.437   2.534 -0.1569 -0.1419  0.1169
    1W        W44872   7.158  14.952   9.165 -0.0715 -0.0544  0.0817
    1W        W44873  25.760   7.501   0.159  0.0361  0.2750 -0.1172
    1W        W44874  18.221  27.202   8.092 -0.0725 -0.2173  0.0640
    1W        W44875  22.358   2.391   8.742 -0.0369 -0.3677 -0.3690
    1W        W44876   3.515   1.044   2.404  0.0728  0.1324  0.5117
    1W        W44877   5.039  21.629   1.056  0.0380 -0.1886 -0.0740
    1W        W44878  11.481  28.925   6.147  0.3758 -0.1440 -0.2018
    1W        W44879  17.832   7.111   1.860  0.1515  0.0024  0.1891
    1W        W44880   7.131   7.073   7.148 -0.2117 -0.3159 -0.3408
    1W        W44881  21.007   4.340   1.486 -0.1105  0.2253  0.2524
    1W        W44882  10.245  18.128   6.340  0.4056 -0.0270 -0.0321
    1W        W44883  14.601  13.497   3.302 -0.2979  0.0394  0.1281
    1W        W44884  14.335  15.064   7.928 -0.0272  0.2440 -0.0843
    1W        W44885   7.803  15.548   7.612  0.0813 -0.0955 -0.2465
    1W        W44886  12.339  18.920   7.783  0.0049 -0.0094 -0.0707
    1W        W44887   3.067  29.727   8.209 -0.0467  0.1079 -0.0288
    1W        W44888   3.536  27.559   0.542  0.2019 -0.0947 -0.0034
    1W        W44889  20.915   6.739   0.550 -0.1275  0.1168 -0.0939
    1W        W44890  28.613   7.988   2.154  0.1192 -0.4212  0.3082
    1W        W44891   6.587  28.375   0.921  0.0963 -0.1648  0.0092
    1W        W44892   5.092  23.759   1.212 -0.3555 -0.2398 -0.2143
    1W        W44893  27.716   3.518   1.698  0.0394 -0.1552  0.1157
    1W        W44894  11.208   7.228   6.861  0.2476  0.1639  0.1825
    1W        W44895   6.627  23.798   6.371  0.0113  0.0271 -0.0586
    1W        W44896   9.665  19.765   1.848 -0.1417  0.1314 -0.2207
    1W        W44897  27.118  12.281   7.551  0.0884  0.2730  0.1047
    1W        W44898   9.092  12.310   9.156  0.1562  0.2564  0.0189
    1W        W44899  24.427  21.659   1.948  0.2812 -0.1123 -0.1347
    1W        W44900   6.320  16.528   6.653 -0.1661  0.0906 -0.1072
    1W        W44901   7.348  12.675   6.429  0.0610 -0.4118 -0.0818
    1W        W44902  18.200   2.849   1.452  0.1832  0.0743 -0.2459
    1W        W44903  24.490   6.397   8.987 -0.1725 -0.0429 -0.1642
    1W        W44904   4.813  27.575   2.376  0.1966  0.1350  0.1598
    1W        W44905  24.117   4.520   3.123 -0.2560 -0.1579  0.1447
    1W        W44906  25.455  25.502   2.784 -0.1111  0.1138  0.0743
    1W        W44907  18.097  30.229   7.076 -0.1970 -0.1047 -0.0210
    1W        W44908  11.535   8.113   7.473  0.0124 -0.0263 -0.1551
    1W        W44909  11.628   4.738   6.736  0.0336  0.2689  0.3531
    1W        W44910   0.301   8.978   8.131  0.0246 -0.3107  0.1686
    1W        W44911  21.481  28.857   3.492  0.2908  0.2720 -0.0327
    1W        W44912   6.859   8.439   2.371 -0.3347  0.4079  0.2389
    1W        W44913   6.752  28.655   7.155  0.0435 -0.2661  0.1221
    1W        W44914  14.678  26.132   9.218 -0.0562 -0.2144 -0.1368
    1W        W44915   2.725  11.928   6.693  0.1939 -0.2941  0.2691
    1W        W44916  23.014  23.531   9.014 -0.0392 -0.2938 -0.1828
    1W        W44917  27.733  29.507   0.548  0.2968  0.0116 -0.2175
    1W        W44918  17.135  27.941   7.169 -0.2612 -0.1377  0.4632
    1W        W44919   4.916  12.391   0.313 -0.0897  0.2691 -0.2601
    1W        W44920  25.546  24.336   1.289  0.2467  0.1807  0.0370
    1W        W44921   9.085   9.111   1.963 -0.1916 -0.2033 -0.0304
    1W        W44922   7.079   9.104   6.725  0.0564 -0.0014 -0.0539
    1W        W44923  28.237  27.278   0.809 -0.1696  0.0044  0.0850
    1W        W44924  18.124  29.687   7.233  0.0406 -0.2027  0.6079
    1W        W44925  17.893  26.254   8.408  0.1533 -0.1422 -0.1421
    1W        W44926  16.727  19.966   0.792  0.1772  0.1863  0.1741
    1W        W44927  10.012  14.631   1.340  0.0004  0.1020  0.0277
    1W        W44928   5.996  10.731   2.219 -0.4497  0.2104  0.0541
    1W        W44929  13.921  15.597   8.765 -0.0960 -0.3568 -0.1134
    1W        W44930  30.015  14.088   8.371 -0.0312  0.3904 -0.1563
    1W        W44931  12.248  13.875   8.361  0.1593  0.2179 -0.1607
    1W        W44932  23.488  28.787   1.200 -0.0028 -0.2036  0.2954
    1W        W44933  29.741  21.186   0.026 -0.5437  0.1337 -0.0161
    1W        W44934  16.697  28.784   9.129  0.0288  0.0832 -0.1003
    1W        W44935  20.360  22.058   8.452  0.1488 -0.1285 -0.1084
    1W        W44936  27.642   0.368   3.923 -0.0309  0.2599 -0.1744
    1W        W44937  23.401  12.523   5.951 -0.3284  0.2671  0.0865
    1W        W44938  15.542  19.407   6.280 -0.1050 -0.1016  0.0841
    1W        W44939  24.861  29.220   1.899  0.3394  0.1846  0.2910
    1W        W44940  27.970   3.623   8.813 -0.4093  0.0428 -0.1771
    1W        W44941  25.676   3.426   0.246  0.1105  0.2117 -0.0604
    1W        W44942  16.841  25.169   6.981 -0.1546 -0.0492 -0.1602
    1W        W44943  23.024   7.871   7.352  0.1627 -0.0504  0.2393
    1W        W44944  25.282   7.070   8.410 -0.2848  0.2151 -0.0160
    1W        W44945   0.166   4.010   9.149 -0.1854  0.0341  0.5430
    1W        W44946   8.111  16.571   7.482  0.3479  0.3690  0.0272
    1W        W44947  11.197  27.515   7.714 -0.0291 -0.0411  0.0587
    1W        W44948  20.970  26.855   7.667  0.0925  0.0274  0.1647
    1W        W44949   0.579   1.386   2.655 -0.1269 -0.2276 -0.0875
    1W        W44950  14.505  26.798   6.589 -0.2706  0.2756  0.1011
    1W        W44951   3.927  26.055   2.808 -0.1001  0.1404  0.0081
    1W        W44952  23.663  17.157   6.949  0.0615  0.1065  0.5390
    1W        W44953  24.058  17.619   6.037 -0.0305 -0.1638  0.1610
    1W        W44954  10.670  13.891   1.449 -0.0480 -0.2077 -0.1785
    1W        W44955  24.970   7.097   2.528 -0.0108 -0.0952  0.0766
    1W        W44956  19.943  10.562   1.968 -0.2994  0.0907  0.1664
    1W        W44957  21.200  24.586   8.010  0.1434  0.0615 -0.0514
    1W        W44958  22.491   6.244   7.151 -0.0487 -0.1765  0.0835
    1W        W44959  16.927  26.532   3.001 -0.1537 -0.2028  0.0045
    1W        W44960  27.602  17.294   0.666  0.1708  0.1540 -0.0071
    1W        W44961   9.797  11.818   2.011  0.1025 -0.1854 -0.1104
    1W        W44962  13.982  11.218   1.202 -0.4051  0.1606  0.0521
    1W        W44963  25.719   6.501   7.237  0.2079 -0.2175  0.0810
    1W        W44964  25.576   1.882   2.166 -0.2316  0.0752  0.0103
    1W        W44965   9.618   2.673   8.699  0.1197 -0.4567 -0.1907
    1W        W44966  24.362   8.967   1.153 -0.2506 -0.2678 -0.0450
    1W        W44967  12.165  10.084   2.374  0.0557  0.0768  0.0435
    1W        W44968  14.445   2.604   0.948 -0.0406  0.1240  0.2435
    1W        W44969  24.701  29.884   7.266  0.2191  0.0517 -0.0195
    1W        W44970  27.485  13.866   9.049 -0.1788  0.0106  0.1591
    1W        W44971  21.205  14.568   7.260  0.1205 -0.0279  0.1785
    1W        W44972   6.315   2.003   2.593 -0.2237 -0.0413  0.0859
    1W        W44973  28.746   8.965   2.144  0.0370 -0.1155 -0.1667
    1W        W44974  25.864  22.037   0.470  0.0332  0.0349 -0.1684
    1W        W44975   1.871  15.148   1.503  0.1951  0.1420 -0.0632
    1W        W44976  10.493  11.166   2.926 -0.1674  0.3469  0.1874
    1W        W44977  26.982  27.271   8.477  0.1493  0.1867  0.0748
    1W        W44978  25.768  20.890   1.380  0.1431 -0.0301  0.3256
    1W        W44979   5.085  22.690   0.256 -0.0541 -0.1502  0.0343
    1W        W44980   9.897   0.267   8.965  0.2852 -0.0369 -0.1904
    1W        W44981  13.853  29.607   6.990 -0.0513 -0.4643  0.2374
    1W        W44982  15.845   8.336   1.277  0.0654  0.0044  0.2196
    1W        W44983  16.883   9.233   0.810  0.2381  0.1442  0.0579
    1W        W44984  16.993  26.191   1.595  0.4386  0.0427  0.0605
    1W        W44985  12.909  10.575   7.167  0.2509  0.4833  0.0635
    1W        W44986  19.904   7.904   0.510 -0.0537  0.1028  0.0384
    1W        W44987  19.843  24.253   8.288 -0.0878  0.3187 -0.0049
    1W        W44988  27.001  27.748   3.635 -0.1677  0.1568 -0.1653
    1W        W44989   6.814  25.662   6.247  0.1252 -0.1703  0.2776
    1W        W44990  30.229  15.716   2.315  0.0368 -0.1670 -0.0669
    1W        W44991  21.259   0.591   3.130 -0.1872  0.0490 -0.3490
    1W        W44992   9.736   7.866   9.098 -0.2197 -0.0708 -0.0272
    1W        W44993   6.128  18.091   7.291  0.2319  0.1421 -0.1762
    1W        W44994  17.218  12.320   0.167 -0.1153 -0.1839  0.2411
    1W        W44995  24.286   5.710   7.244  0.0989 -0.1032 -0.1533
    1W        W44996  26.607  12.149   0.409 -0.3649  0.1633  0.2139
    1W        W44997  28.860   7.693   6.453  0.1603 -0.1142 -0.2170
    1W        W44998  15.775   4.727   0.826  0.2367 -0.2608  0.3395
    1W        W44999   2.322  22.039   1.053 -0.0386  0.0167 -0.1577
    1W        W45000   3.388   5.452   7.159  0.0875  0.0680  0.0166
    1W        W45001  29.040   2.106   2.757  0.1326  0.0400 -0.0869
    1W        W45002  12.169  12.407   1.337 -0.1823  0.0098  0.0528
    1W        W45003   1.060  19.333   9.070  0.3067  0.0801 -0.1016
    1W        W45004  13.388  28.304   6.929  0.2661 -0.1341 -0.1596
    1W        W45005  28.713  19.251   7.437 -0.1177 -0.1629  0.3116
    1W        W45006  26.426  17.614   8.695  0.1091  0.2584 -0.2322
    1W        W45007  26.526   2.655   1.449  0.3416  0.0275  0.2088
    1W        W45008   1.272  14.986   0.793 -0.1797  0.1989 -0.1142
    1W        W45009   3.253   5.770   1.730 -0.1879 -0.1611  0.2251
    1W        W45010   2.448  19.480   1.215 -0.1784 -0.3679 -0.0749
    1W        W45011  20.666   2.150   6.179  0.1712 -0.0599 -0.1229
    1W        W45012  15.328   8.978   1.437  0.1512 -0.1993 -0.2847
    1W        W45013   0.899   0.909   1.048 -0.2933 -0.2089  0.1714
    1W        W45014  16.646  19.212   1.091  0.0523 -0.1540  0.0244
    1W        W45015  12.082  23.271   0.639 -0.1322 -0.0879  0.0312
    1W        W45016   9.777   8.126   0.332 -0.0966 -0.1238 -0.2936
    1W        W45017   6.802  23.445   6.685  0.2556  0.1952  0.1635
    1W        W45018  20.268  13.897   6.419 -0.1242 -0.1161 -0.2152
    1W        W45019  20.249   2.436   1.613  0.0773 -0.1599 -0.3606
    1W        W45020  19.429  20.842   2.988  0.3946 -0.0263 -0.1864
    1W        W45021  20.674  16.370   1.325  0.1026 -0.1060 -0.0084
    1W        W45022  10.522  19.844   6.657 -0.1624 -0.0298 -0.0139
    1W        W45023   7.486   4.159   1.700  0.0400 -0.2299  0.1211
    1W        W45024  17.168   2.426   8.018 -0.1781  0.3347  0.0359
    1W        W45025  25.373   9.632   8.612 -0.3553  0.0171 -0.1380
    1W        W45026  18.568   4.772   0.528  0.2497  0.2676  0.3147
    1W        W45027   6.516   9.169   0.260 -0.0087  0.1376  0.3922
    1W        W45028  25.300  21.448   9.046 -0.1627  0.1623 -0.1316
    1W        W45029  24.806   3.682   1.929 -0.0151 -0.5652  0.1731
    1W        W45030   5.153  20.286   1.670 -0.2246  0.0179 -0.0477
    1W        W45031  25.878  16.307   8.409  0.0987  0.0834  0.0518
    1W        W45032  16.675  11.416   2.816 -0.0553  0.0485  0.3080
    1W        W45033  28.732  20.512   7.823 -0.2571  0.0511 -0.0663
    1W        W45034  27.130  24.911   2.381  0.0610 -0.1374  0.1339
    1W        W45035  19.810   0.913   1.505  0.1982 -0.1849  0.2192
    1W        W45036   9.540  28.855   8.918 -0.0549  0.4254  0.2986
    1W        W45037   1.497  17.566   8.432  0.0224 -0.0243 -0.0341
    1W        W45038  25.311  17.875   7.165  0.0268  0.3153 -0.0844
    1W        W45039   9.534  24.873   6.697 -0.0184 -0.0360  0.1251
    1W        W45040  17.440  24.712   1.434 -0.1100  0.0277 -0.0286
    1W        W45041  22.512  27.680   7.909  0.4738 -0.2541 -0.0413
    1W        W45042  28.884   0.177   9.111 -0.0314  0.1920  0.0482
    1W        W45043  27.323   9.829   2.629  0.0083 -0.3450 -0.0314
    1W        W45044  15.278   3.249   0.995 -0.0527 -0.0697 -0.1364
    1W        W45045  20.965  10.430   7.582  0.0325 -0.0665 -0.0662
    1W        W45046   4.930  11.825   1.730  0.0953 -0.0796  0.1486
    1W        W45047   8.614  19.645   9.267 -0.1760 -0.3428  0.1586
    1W        W45048   1.076  29.054   3.342  0.0165  0.3895 -0.1810
    1W        W45049   8.365  27.472   2.192 -0.0722  0.1487 -0.1387
    1W        W45050  14.624  12.645   9.236 -0.1806 -0.2273  0.0674
    1W        W45051   9.852  19.610   7.386 -0.1731  0.2913 -0.0646
    1W        W45052  11.684   9.085   6.975  0.3041 -0.0188  0.0954
    1W        W45053  16.351  20.236   0.042  0.0046 -0.2567  0.2093
    1W        W45054   0.945  18.996   1.218 -0.0181  0.1327 -0.0587
    1W        W45055  28.514  23.337   9.191 -0.0803  0.0518  0.4093
    1W        W45056  17.077  23.577   8.316  0.2801 -0.0961  0.1905
    1W        W45057  16.790   5.189   2.000 -0.1256 -0.0840 -0.1928
    1W        W45058  25.863  16.036   0.027  0.2490  0.2953 -0.1700
    1W        W45059  20.842  13.490   7.907 -0.1484 -0.2922 -0.0788
    1W        W45060  16.700   4.643   0.025  0.2458  0.3758  0.1255
    1W        W45061   9.816   8.952   0.302  0.1358  0.2104  0.2008
    1W        W45062  28.229  11.200   8.596  0.0657  0.3296 -0.0664
    1W        W45063  20.294   3.831   8.393 -0.0627 -0.1020  0.0628
    1W        W45064   9.870  19.485   8.938 -0.0301  0.1460 -0.5675
    1W        W45065   4.963   8.016   1.587  0.0764 -0.1025  0.1052
    1W        W45066   6.148  13.233   9.035 -0.0523 -0.1964  0.3232
    1W        W45067  26.174   5.663   7.340 -0.0499 -0.0893  0.1593
    1W        W45068  26.772  26.050   3.356 -0.0170 -0.1109  0.0699
    1W        W45069   3.982  27.161   2.469  0.5138  0.2889  0.1300
    1W        W45070  24.414  29.534   1.923  0.0188 -0.1832  0.0131
    1W        W45071  25.358   6.109   2.119 -0.0459 -0.0331  0.1011
    1W        W45072   2.717  28.833   0.353 -0.1645  0.0640 -0.0357
    1W        W45073   0.834  30.267   8.664 -0.0672  0.1243  0.0647
    1W        W45074  21.071  12.028   7.250 -0.4542 -0.0611  0.1987
    1W        W45075  14.264  17.973   5.803 -0.1994 -0.0063  0.0358
    1W        W45076  18.565  23.795   1.251  0.1441 -0.0896  0.1901
    1W        W45077   2.513   8.950   7.164 -0.0087  0.2600  0.2420
    1W        W45078  26.066  13.877   6.070  0.0018 -0.4473  0.0332
    1W        W45079  16.553  20.334   2.214  0.2947 -0.0557 -0.0165
    1W        W45080  23.933   4.690   0.772  0.1332 -0.1961  0.1764
    1W        W45081   2.316  23.535   7.310 -0.0376 -0.1688  0.2295
    1W        W45082  20.644  23.128   1.969  0.0806 -0.1978 -0.2706
    1W        W45083  13.876   8.639   0.335  0.1946  0.1530 -0.1088
    1W        W45084   9.082  24.188   0.540 -0.0022  0.0599 -0.1014
    1W        W45085   4.211  12.435   1.617 -0.0679  0.0958  0.1499
    1W        W45086  17.006  26.591   7.245 -0.0780 -0.1426  0.4970
    1W        W45087  14.744  29.914   8.816  0.1102 -0.2744 -0.0668
    1W        W45088   7.906  14.603   0.189 -0.1351  0.2210  0.0527
    1W        W45089  28.541   6.383   8.849  0.0435  0.2025  0.0514
    1W        W45090  29.987  22.885   8.368 -0.2655  0.1061  0.0081
    1W        W45091  24.501  21.028   0.833  0.1499 -0.0337  0.2920
    1W        W45092  11.046  16.513   9.189 -0.0498  0.2860  0.1120
    1W        W45093  14.530   6.963   1.304 -0.0675  0.1995 -0.2725
    1W        W45094   2.091  11.214   7.821  0.0717 -0.0990  0.2613
    1W        W45095   9.536  17.286   7.870  0.0079 -0.1337 -0.1111
    1W        W45096  20.252  24.573   2.775  0.0755 -0.0868 -0.1150
    1W        W45097  15.586  23.469   1.913  0.2390  0.2397  0.0012
    1W        W45098  21.264  17.026   6.585 -0.4133 -0.1132 -0.1647
    1W        W45099   1.239  14.441   7.765 -0.1339 -0.1443  0.1110
    1W        W45100  28.931   3.476   8.277 -0.0334  0.0738  0.2089
    1W        W45101  22.789  28.400   2.847  0.0325 -0.3077 -0.1632
    1W        W45102  16.488  15.802   0.103  0.1510 -0.2447 -0.0798
    1W        W45103  26.132  12.219   6.067  0.0936 -0.0067 -0.3419
    1W        W45104  28.124   7.073   7.529  0.1396  0.0050 -0.3399
    1W        W45105  18.845  15.645   0.208 -0.0077  0.1992 -0.1502
    1W        W45106   0.334  15.873   6.626 -0.2051 -0.0607  0.0398
    1W        W45107  14.031  21.268   6.486 -0.0376  0.1940 -0.1101
    1W        W45108  13.850  18.762   8.802  0.0273 -0.2016  0.2246
    1W        W45109   2.396   3.290   7.981  0.0370 -0.0954 -0.1593
    1W        W45110  28.848  11.399   1.304  0.3446 -0.3594 -0.1638
    1W        W45111  19.131  13.025   8.390  0.0458 -0.0134  0.1247
    1W        W45112  11.840  11.115   1.635 -0.0477  0.0778 -0.2656
    1W        W45113  16.200  25.780   7.194  0.0160 -0.2187 -0.2101
    1W        W45114   7.163  13.544   6.883 -0.1541 -0.0139  0.0844
    1W        W45115   7.529  20.747   2.353 -0.2623  0.3633  0.5114
    1W        W45116  15.613  23.028   7.638  0.2561 -0.2101  0.1889
    1W        W45117  21.335  11.531   1.566  0.0136 -0.3077  0.2217
    1W        W45118   9.798  15.785   2.269 -0.0613  0.0951  0.2684
    1W        W45119  20.298   3.353   8.596 -0.1056 -0.4267 -0.1831
    1W        W45120  12.916   9.642   8.723 -0.0534 -0.0112  0.1741
    1W        W45121  22.461  29.311   7.560 -0.0197  0.2778  0.0674
    1W        W45122  20.285  28.795   2.260 -0.1187  0.1134 -0.0871
    1W        W45123   4.104   0.335   1.208 -0.2300 -0.0826 -0.2514
    1W        W45124  13.357  23.323   2.042  0.0509  0.4085 -0.0964
    1W        W45125  17.496  22.632   6.952 -0.3373 -0.2331  0.0339
    1W        W45126  24.855  12.630   6.671 -0.2567 -0.0987  0.2606
    1W        W45127   3.292  12.475   8.807  0.1290  0.1725  0.0140
    1W        W45128  23.653   6.241   2.559  0.1277 -0.3044  0.0558
    1W        W45129  24.444  29.992   8.821  0.1814 -0.2124 -0.1597
    1W        W45130   8.017   3.228   3.315  0.0018 -0.0323 -0.1504
    1W        W45131  16.694  14.939   9.197  0.0868  0.2443 -0.0461
    1W        W45132  10.894  21.691   5.825 -0.0813  0.3252 -0.0117
    1W        W45133   0.471   2.284   1.496  0.1379 -0.1132 -0.1520
    1W        W45134   4.108  15.652   7.388  0.1479 -0.0014  0.1347
    1W        W45135  16.138  28.748   8.907 -0.2645 -0.1650 -0.3180
    1W        W45136   7.359  16.758   0.640  0.1499 -0.0635  0.1159
    1W        W45137   8.894  10.338   8.680 -0.1868 -0.0905  0.0347
    1W        W45138  17.234  28.830   2.042 -0.0351  0.0578  0.2615
    1W        W45139   6.388   3.850   2.649  0.1531  0.2510 -0.0889
    1W        W45140  29.227  27.170   8.086 -0.0603 -0.0807 -0.0756
    1W        W45141  13.236  24.343   0.865 -0.1958  0.0241 -0.0029
    1W        W45142  21.119  26.789   1.030  0.1928  0.1905  0.0099
    1W        W45143  23.789  16.238   1.389  0.2814  0.3254 -0.1810
    1W        W45144   5.235  18.983   6.126  0.2163  0.0012  0.1305
    1W        W45145  16.918   6.674   6.208 -0.0143  0.0497 -0.0781
    1W        W45146   4.083  11.432   2.034  0.1035 -0.0943 -0.2008
    1W        W45147  29.487   9.889   1.805  0.4273 -0.0764 -0.1349
    1W        W45148   3.759   5.134   7.290 -0.1016 -0.0725  0.0528
    1W        W45149  19.517   6.116   1.631  0.2902 -0.1160  0.0945
    1W        W45150  29.630  24.506   7.040  0.2431  0.0475  0.0636
    1W        W45151   4.763  23.570   7.517 -0.0847  0.0019 -0.3789
    1W        W45152  15.221  25.517   8.796  0.0784 -0.0883 -0.0515
    1W        W45153   9.495   8.877   8.195 -0.2490  0.1055 -0.2046
    1W        W45154  24.398  22.548   7.522  0.0954  0.0751 -0.1155
    1W        W45155   7.670   0.251   2.808  0.2627 -0.2264 -0.2302
    1W        W45156  23.353  24.941   5.912  0.0124  0.1056 -0.3219
    1W        W45157  11.329  14.251   3.420 -0.1239 -0.1485 -0.1935
    1W        W45158   7.045  30.070   7.631  0.0690  0.2991 -0.2089
    1W        W45159  17.859  11.262   2.625 -0.2149 -0.0257  0.2761
    1W        W45160  22.029  14.328   6.202  0.0604  0.0095  0.2120
    1W        W45161  18.180   2.212   8.823 -0.0169 -0.0496  0.2132
    1W        W45162   9.362  29.416   0.295 -0.0836  0.1557 -0.0275
    1W        W45163  13.582  16.311   2.555 -0.0607  0.1213 -0.1585
    1W        W45164  25.136  13.695   9.272  0.3720  0.0143  0.2792
    1W        W45165  22.907  13.713   0.050 -0.1252 -0.0936  0.0702
    1W        W45166  19.171  18.224   0.099 -0.3435 -0.0497  0.1653
    1W        W45167   9.761  10.012   1.757 -0.0089  0.5434 -0.0488
    1W        W45168  27.257  12.751   1.822  0.1476 -0.0748 -0.1205
    1W        W45169   8.831   2.809   6.209  0.3921 -0.1683 -0.0928
    1W        W45170  25.951  24.798   6.724 -0.1970 -0.3833 -0.0382
    1W        W45171   2.064   8.629   2.396  0.1460  0.0981  0.0989
    1W        W45172  11.709   1.606   7.234  0.1523  0.1323  0.1862
    1W        W45173  11.508   4.931   7.730  0.0699  0.2313 -0.1131
    1W        W45174  14.175   9.446   0.198  0.0460 -0.1809 -0.0329
    1W        W45175  11.392   0.330   8.253 -0.1881  0.0427 -0.0458
    1W        W45176   7.925  29.761   7.922  0.1587 -0.1992  0.0766
    1W        W45177  24.588  10.057   7.204  0.1650 -0.0109 -0.1435
    1W        W45178  23.391   7.015   6.461 -0.1824  0.0331 -0.4003
    1W        W45179  22.487  15.990   0.481 -0.0649  0.2992  0.1127
    1W        W45180  17.339   8.388   6.795  0.5486  0.1931 -0.0958
    1W        W45181  22.000  21.201   6.337  0.2648  0.0223  0.0946
    1W        W45182  29.560   2.278   2.907 -0.1170 -0.0486 -0.0452
    1W        W45183  23.610  22.311   8.581  0.0618  0.3175  0.0033
    1W        W45184  22.698   1.017   2.295  0.0811 -0.2565 -0.1145
    1W        W45185   4.958  19.021   8.649  0.1058  0.1115 -0.2607
    1W        W45186  15.217  12.383   3.208 -0.1157 -0.1470 -0.3308
    1W        W45187  28.642  16.062   7.866 -0.2433  0.0436 -0.3161
    1W        W45188  23.432  28.495   8.853  0.1485 -0.0526  0.0591
    1W        W45189   8.317   1.397   9.018 -0.0096 -0.2115  0.0246
    1W        W45190   6.463  12.966   7.839  0.1234  0.1252  0.3273
    1W        W45191   1.143   4.817   7.562 -0.0966 -0.1922 -0.3364
    1W        W45192  13.383  29.774   1.018  0.0648  0.0343 -0.1290
    1W        W45193  12.088  14.087   1.454 -0.2718  0.0789  0.1971
    1W        W45194  29.179  22.889   7.768  0.0282 -0.0203 -0.1739
    1W        W45195  24.115  18.805   0.537  0.0100 -0.0379 -0.2411
    1W        W45196  29.873  11.932   2.460  0.0159 -0.1373 -0.1595
    1W        W45197  28.245  20.580   8.820  0.0437  0.0391  0.0283
    1W        W45198   2.763  24.985   8.164  0.2187  0.2633 -0.1482
    1W        W45199  16.649   0.424   1.066 -0.0370 -0.2160 -0.1310
    1W        W45200  22.348   6.452   2.324 -0.1378  0.0812  0.0452
    1W        W45201   3.971  25.037   8.037 -0.1858 -0.0507  0.0917
    1W        W45202  12.505  22.763   8.182  0.0571  0.1306 -0.2922
    1W        W45203  18.698  30.060   1.199  0.1331 -0.0609  0.2066
    1W        W45204  21.137  11.245   6.244  0.2229 -0.1392  0.0125
    1W        W45205   7.339  18.813   7.463 -0.1475 -0.1002 -0.0510
    1W        W45206  23.566   7.946   1.207  0.0862 -0.0590  0.1398
    1W        W45207  18.186  27.229   1.861  0.5658 -0.0613 -0.0292
    1W        W45208   4.649  20.436   7.221 -0.0323 -0.1616 -0.0784
    1W        W45209  12.935   4.012   0.542 -0.1143  0.0089  0.3375
    1W        W45210  11.364  28.751   2.958  0.2293 -0.0618 -0.1462
    1W        W45211  21.350  12.777   6.741 -0.0348  0.0296  0.0145
    1W        W45212  18.927  22.835   7.193  0.0101 -0.0797  0.1563
    1W        W45213   1.515  19.914   8.478  0.1018  0.0759 -0.1777
    1W        W45214  12.841  13.115   3.187  0.3079  0.2267  0.4001
    1W        W45215   3.809  18.673   8.749  0.1306  0.0493  0.1435
    1W        W45216  21.456  14.353   6.395  0.0098  0.0631  0.0819
    1W        W45217  28.056  13.478   8.161  0.0605  0.3073  0.1592
    1W        W45218  14.767  21.282   2.009  0.1022  0.1670  0.1723
    1W        W45219  19.323  17.707   9.183  0.2167 -0.1990 -0.0811
    1W        W45220   7.018  14.613   7.923 -0.0815 -0.1609 -0.1730
    1W        W45221  23.667  21.883   1.472  0.0598 -0.0912  0.0141
    1W        W45222  18.966  27.840   7.231 -0.1948 -0.3125 -0.1716
    1W        W45223  21.342  15.539   2.397 -0.0780  0.3775 -0.3616
    1W        W45224  11.613  16.831   8.992  0.0754 -0.1575 -0.0265
    1W        W45225   2.008   0.148   0.154  0.0692 -0.2153  0.3073
    1W        W45226  14.216  24.523   2.389  0.1426  0.2002 -0.1668
    1W        W45227   0.875  26.630   9.056  0.0728  0.0651 -0.1024
    1W        W45228  28.757  10.994   8.849 -0.1213  0.0853  0.0614
    1W        W45229  27.367  27.120   1.894 -0.1498  0.1206  0.3327
    1W        W45230  19.661  22.888   7.200  0.1275 -0.1987 -0.0883
    1W        W45231   5.731  27.499   0.198  0.0132  0.0063 -0.0785
    1W        W45232   8.096  19.820   7.964 -0.0007  0.0690  0.1883
    1W        W45233  15.000  26.514   0.465  0.1333 -0.1928 -0.2831
    1W        W45234  15.043   4.614   9.008 -0.0215 -0.1849  0.3243
    1W        W45235  30.163  12.103   1.155 -0.2565  0.0260  0.0849
    1W        W45236  20.019  26.864   7.949 -0.0547  0.0295 -0.0427
    1W        W45237   8.175  11.577   1.596  0.1118 -0.0448 -0.1592
    1W        W45238   5.725  30.291   6.971 -0.1110  0.2417  0.3924
    1W        W45239  15.016  11.127   2.278 -0.0351 -0.2246  0.3226
    1W        W45240  24.371   1.175   2.357  0.0810 -0.2178  0.0420
    1W        W45241  25.834  10.833   0.360 -0.0060 -0.1873  0.0743
    1W        W45242  21.672   7.693   2.180  0.0798  0.1145  0.1020
    1W        W45243  10.257  12.193   9.122  0.1372 -0.2427  0.0445
    1W        W45244   8.864  23.103   7.763 -0.2968  0.0846  0.0146
    1W        W45245  14.813  15.459   0.557  0.5786 -0.0410 -0.1202
    1W        W45246   9.172  12.235   1.437 -0.0239 -0.0865  0.0820
    1W        W45247  16.451  17.633   2.988 -0.0901 -0.1425  0.1328
    1W        W45248  10.007  22.059   7.272 -0.3513  0.2363  0.2830
    1W        W45249   2.334  19.886   6.318  0.2323 -0.2732 -0.0984
    1W        W45250   0.779   1.202   3.115 -0.2264 -0.1341 -0.1543
    1W        W45251   1.554   9.344   7.303 -0.2191 -0.1031 -0.1185
    1W        W45252  21.969   7.259   7.952 -0.2039 -0.3219  0.1170
    1W        W45253  24.792   5.191   9.068  0.0020  0.3035  0.0615
    1W        W45254  15.507  17.743   0.328  0.3625  0.2799  0.0492
    1W        W45255   8.747  20.658   7.419 -0.0423 -0.1230  0.1005
    1W        W45256   0.606  12.364   8.198  0.1426  0.1721 -0.0629
    1W        W45257  26.153  20.978   6.676  0.3378 -0.3538 -0.2543
    1W        W45258   2.935  27.123   1.897  0.4093 -0.1972  0.0224
    1W        W45259  10.683  29.762   2.078 -0.0333 -0.1706  0.2445
    1W        W45260  22.594  26.599   1.730 -0.1195 -0.2290 -0.0685
    1W        W45261  18.728   7.588   1.046  0.0148 -0.0240  0.0914
    1W        W45262  25.532  23.836   1.606 -0.0787 -0.2675  0.3820
    1W        W45263  19.193   1.606   7.688  0.0978  0.2493 -0.0781
    1W        W45264  25.364  16.614   8.194  0.2035  0.0702 -0.2090
    1W        W45265  22.665  28.958   8.077 -0.2336  0.0036  0.0929
    1W        W45266  26.896  21.445   9.042 -0.0345 -0.0389 -0.2194
    1W        W45267  18.131  26.263   0.592  0.0193 -0.1886  0.1115
    1W        W45268  12.736  17.597   7.766 -0.0458  0.1929 -0.1378
    1W        W45269  20.316   2.784   3.209 -0.2556 -0.3877 -0.4263
    1W        W45270  19.705  12.927   9.221 -0.0748 -0.0339  0.0496
    1W        W45271   2.026   2.187   8.397  0.5517 -0.0380 -0.0011
    1W        W45272  23.280  16.588   8.822  0.1007  0.1261 -0.3043
    1W        W45273   2.599  30.172   0.968 -0.0480 -0.2747  0.0560
    1W        W45274   5.207   8.224   6.837  0.1603  0.1004 -0.0318
    1W        W45275  14.158   1.993   7.068 -0.1105 -0.0983 -0.0879
    1W        W45276   8.781   7.016   2.493 -0.4595 -0.0003 -0.0838
    1W        W45277   5.754  12.255   0.051 -0.0009 -0.3101  0.1771
    1W        W45278  12.991   0.476   1.179  0.2066 -0.1715 -0.0519
    1W        W45279  17.125  12.146   7.998  0.1041 -0.0414 -0.1272
    1W        W45280  19.051   8.477   0.126 -0.2668  0.1241 -0.1891
    1W        W45281  20.107  10.840   7.897  0.0257  0.2778  0.1500
    1W        W45282  17.913   5.048   2.046  0.0961 -0.2053  0.0977
    1W        W45283   2.685   1.732   2.476  0.0460 -0.1068  0.1099
    1W        W45284   7.966   6.412   7.159 -0.0321  0.0965 -0.1374
    1W        W45285  10.565  20.021   7.494  0.1199 -0.2361 -0.1080
    1W        W45286  17.767  18.351   7.940 -0.1154  0.1551  0.0853
    1W        W45287  30.296  12.468   6.441  0.1014  0.0375  0.2499
    1W        W45288  13.372  16.769   1.509 -0.0317 -0.3067 -0.0421
    1W        W45289  28.982   6.172   7.254  0.0411 -0.1043 -0.0541
    1W        W45290  24.699  25.354   7.286 -0.1427  0.1013  0.2851
    1W        W45291   7.584  16.641   7.035  0.1577  0.1228 -0.1974
    1W        W45292  16.640  30.273   1.270  0.2282  0.0136  0.1907
    1W        W45293  15.351  29.654   0.250  0.2449  0.0717  0.1282
    1W        W45294  24.349  25.369   0.024 -0.0594 -0.2461  0.0524
    1W        W45295  15.474  24.478   0.167 -0.3461  0.0504 -0.3907
    1W        W45296  14.220   3.778   1.599 -0.2176 -0.0967  0.2301
    1W        W45297  24.351  27.708   7.873 -0.0737 -0.1213 -0.1171
    1W        W45298  11.530  15.515   1.729 -0.0183  0.1261  0.1212
    1W        W45299   5.342  15.332   1.778 -0.1858 -0.2194 -0.0501
    1W        W45300   8.053   6.815   0.597  0.2506  0.0216 -0.2109
    1W        W45301   4.699  19.722   8.336  0.2515 -0.0237 -0.1032
    1W        W45302  29.935  16.460   7.550  0.2671  0.0939  0.0743
    1W        W45303  28.658  24.412   8.815 -0.1460 -0.1533  0.2808
    1W        W45304  23.575   3.492   1.142  0.2174  0.1085  0.0957
    1W        W45305  10.577   2.917   7.115 -0.3556  0.3226  0.0380
    1W        W45306  23.937  19.279   2.224 -0.1851  0.0100 -0.2431
    1W        W45307  14.420  21.489   6.039  0.0782 -0.1699 -0.0235
    1W        W45308  20.574  15.895   7.586 -0.0099  0.2823 -0.3344
    1W        W45309  26.887   9.849   0.875  0.2313 -0.0405  0.1485
    1W        W45310  12.489   6.679   2.116 -0.0633  0.1280  0.1473
    1W        W45311  17.072  28.837   8.111 -0.1139 -0.2185  0.1048
    1W        W45312  24.208   1.848   8.448  0.2021 -0.2718 -0.0216
    1W        W45313   3.065  19.996   8.559  0.0390 -0.2695 -0.2527
    1W        W45314   1.699  20.548   1.291  0.0334  0.1099 -0.1508
    1W        W45315  29.802  26.194   2.342 -0.0232  0.0221  0.0687
    1W        W45316   3.942  11.312   0.257  0.3069  0.1562  0.1147
    1W        W45317  30.159  20.678   0.527 -0.1923 -0.0590 -0.1448
    1W        W45318  28.083  27.555   2.228  0.0976  0.0067 -0.1794
    1W        W45319   5.539  25.556   7.476  0.0435  0.0064  0.0978
    1W        W45320  11.443   1.138   6.461 -0.0418 -0.2087  0.3267
    1W        W45321   8.422  26.023   2.532 -0.1778  0.1356  0.2279
    1W        W45322  10.719  19.901   1.770  0.1274 -0.0431 -0.3020
    1W        W45323  10.325  23.256   8.949  0.2077  0.0277  0.4504
    1W        W45324  20.815  17.420   2.127  0.2589 -0.2705 -0.0564
    1W        W45325  10.586   5.046   6.099  0.2334 -0.1178  0.1698
    1W        W45326   2.480  11.835   1.723  0.1738  0.0755  0.0977
    1W        W45327  24.656   2.491   0.224  0.0178  0.1518 -0.4071
    1W        W45328  24.990  11.213   7.944 -0.3777 -0.1496  0.0450
    1W        W45329  15.700  27.835   1.979 -0.2881  0.0455  0.1666
    1W        W45330  25.062   8.387   2.317 -0.2100  0.0736 -0.1256
    1W        W45331  18.501  28.241   6.626  0.1271  0.0182  0.0047
    1W        W45332  16.052  21.987   0.805 -0.3750 -0.0542  0.0120
    1W        W45333  23.345   8.758   1.462 -0.0871  0.0738 -0.0802
    1W        W45334  21.493  22.046   1.422 -0.1944  0.1394 -0.3039
    1W        W45335  21.369  23.711   7.305 -0.0317 -0.1749  0.0195
    1W        W45336   3.008   8.302   1.638 -0.1456 -0.2148  0.2164
    1W        W45337  28.721  10.016   8.772  0.0290 -0.0972 -0.1820
    1W        W45338  20.141  12.161   2.522 -0.1280 -0.2957  0.3102
    1W        W45339  27.170  14.812   7.365 -0.1977  0.0637  0.0116
    1W        W45340  11.489  26.558   2.028  0.2837 -0.3687  0.3120
    1W        W45341  21.401  22.868   0.879 -0.1399  0.0209 -0.2338
    1W        W45342  12.545  13.546   7.426 -0.0342 -0.0672 -0.1536
    1W        W45343  21.679  19.914   0.217  0.1344  0.0357  0.4475
    1W        W45344  18.811   2.463   7.093  0.2748  0.1047 -0.0672
    1W        W45345   1.007   4.513   8.867 -0.2144  0.3646 -0.0075
    1W        W45346   4.981  16.494   0.711 -0.4248 -0.0709 -0.1748
    1W        W45347  11.102  24.429   6.851  0.1353 -0.0242  0.1160
    1W        W45348   3.060   0.684   8.615  0.1596 -0.1104  0.2358
    1W        W45349  18.335  18.979   0.767 -0.3631 -0.0312  0.1096
    1W        W45350   5.904  15.389   8.472 -0.0243  0.1031 -0.1231
    1W        W45351  20.174  17.983   1.180  0.1555  0.0410  0.2934
    1W        W45352  29.969  26.170   8.193 -0.1748 -0.2462  0.0781
    1W        W45353  10.539  16.045   1.588 -0.1863 -0.0200  0.0969
    1W        W45354  22.735   9.523   8.978  0.3787 -0.3655  0.0096
    1W        W45355   0.993   4.080   2.643 -0.2867  0.2793 -0.4394
    1W        W45356   5.430  13.956   1.366  0.0317  0.1960  0.3137
    1W        W45357   5.668  26.602   1.596  0.2051  0.0493  0.1724
    1W        W45358  10.181  18.192   8.668 -0.1423  0.0519  0.1013
    1W        W45359  18.673   9.020   7.013  0.0049  0.1647  0.1398
    1W        W45360   7.243  20.794   8.596  0.0020  0.1535 -0.3870
    1W        W45361  21.476  18.841   6.972 -0.2991  0.0751  0.0453
    1W        W45362  20.922  16.935   0.819  0.2655  0.3230  0.2765
    1W        W45363  20.112  19.622   6.041 -0.1076 -0.0925  0.1605
    1W        W45364  29.393   8.435   7.236 -0.2985  0.2159  0.0185
    1W        W45365  11.521   3.542   6.075 -0.2362 -0.2791  0.3128
    1W        W45366  14.175  24.705   0.450 -0.3901 -0.0544 -0.1344
    1W        W45367   7.086  26.406   1.920  0.2702  0.0020 -0.0612
    1W        W45368  11.804   9.971   0.244  0.1012 -0.1730 -0.0187
    1W        W45369  17.112  23.779   2.708  0.2271 -0.0038  0.1103
    1W        W45370   5.131  24.438   6.494 -0.1878 -0.2996 -0.3028
    1W        W45371   8.742   2.503   7.042 -0.1778 -0.0276  0.2261
    1W        W45372   8.165  21.302   1.927 -0.0217 -0.1409  0.1376
    1W        W45373  23.681   5.037   1.251 -0.0710  0.1249  0.4081
    1W        W45374  13.809   8.713   8.075  0.0801  0.1819  0.1121
    1W        W45375   3.806  17.040   1.161  0.3336 -0.0495 -0.0721
    1W        W45376   1.607  21.451   1.156 -0.1065 -0.1419  0.3649
    1W        W45377  21.101  22.037   6.574 -0.0518 -0.1261  0.0657
    1W        W45378   7.549  28.412   0.253  0.0911  0.3260  0.4157
    1W        W45379  28.100  25.514   2.533 -0.0784 -0.0046  0.2159
    1W        W45380  22.944   7.056   7.948  0.1501 -0.0094  0.4378
    1W        W45381  22.826  24.150   8.065  0.1195  0.1840  0.2247
    1W        W45382  28.142  29.268   0.381 -0.2613 -0.1403 -0.3008
    1W        W45383  10.109  19.960   7.693 -0.4785  0.0043 -0.2300
    1W        W45384  19.553  27.431   2.374  0.0920 -0.1349  0.0003
    1W        W45385  12.169   0.019   2.560 -0.3415  0.1274  0.0807
    1W        W45386  23.148  21.312   0.547 -0.2175 -0.1413 -0.2984
    1W        W45387  23.284   7.546   9.091 -0.0359 -0.0099 -0.2456
    1W        W45388  19.964   2.704   9.190  0.2335 -0.3411  0.1129
    1W        W45389   6.459   6.092   2.750  0.2414  0.0233  0.0043
    1W        W45390  25.914  20.707   8.019  0.2126 -0.0751  0.0206
    1W        W45391  13.466   8.779   2.050 -0.0145  0.0520  0.1549
    1W        W45392  22.018   4.547   3.322  0.2101 -0.0914  0.0787
    1W        W45393   6.443  12.709   9.014  0.0287 -0.2525  0.0196
    1W        W45394   9.897  29.977   8.188 -0.1484 -0.2208 -0.3083
    1W        W45395  13.614  14.426   7.649 -0.2129 -0.0676 -0.2922
    1W        W45396  22.140  29.762   1.544  0.1350 -0.1310 -0.1314
    1W        W45397  28.037  22.363   8.544  0.0010 -0.1153 -0.1797
    1W        W45398  29.292  28.632   9.254  0.0321 -0.1161 -0.3080
    1W        W45399  24.694   9.248   0.931  0.1756 -0.0863 -0.0664
    1W        W45400   2.168  23.497   8.361  0.1267 -0.1530  0.2736
    1W        W45401   0.335   7.362   1.454  0.2107  0.1533 -0.1532
    1W        W45402  13.005  27.279   2.342  0.0050 -0.0191 -0.0539
    1W        W45403   8.245  16.428   1.761 -0.0401  0.3579 -0.1246
    1W        W45404   1.486  11.747   2.647 -0.2423 -0.0561  0.0429
    1W        W45405  16.506   1.538   6.665 -0.1931  0.2262 -0.1159
    1W        W45406   7.869  18.072   8.879  0.0855 -0.0139  0.0136
    1W        W45407   1.364  13.144   8.173 -0.0995  0.0541  0.0669
    1W        W45408  26.420   0.235   8.600  0.0021 -0.0353 -0.2879
    1W        W45409  26.384  12.852   1.985  0.1337 -0.0443  0.1186
    1W        W45410   6.560  15.495   7.291  0.1687 -0.0082 -0.2220
    1W        W45411  16.413   8.865   7.871 -0.0558 -0.2394 -0.1572
    1W        W45412   1.560   0.679   0.913 -0.0273 -0.3205  0.1853
    1W        W45413   9.502  26.813   8.716  0.2079  0.0299 -0.2584
    1W        W45414  10.738  14.391   1.302 -0.2784  0.0352  0.3768
    1W        W45415  21.491  28.456   1.924 -0.2342 -0.1734 -0.0674
    1W        W45416  24.029  19.562   8.866  0.1909 -0.3237  0.2240
    1W        W45417  28.422  16.277   0.037  0.0507 -0.1470 -0.2256
    1W        W45418  26.320  11.266   0.657  0.0936 -0.2030 -0.2746
    1W        W45419  10.126   0.500   8.615  0.1008 -0.2987  0.1742
    1W        W45420  28.313  19.724   7.686 -0.1059 -0.0998  0.1051
    1W        W45421   7.518  20.743   6.808  0.1260  0.0010  0.2070
    1W        W45422  19.073  21.521   6.851 -0.1705  0.0060 -0.0442
    1W        W45423  11.555   3.815   1.167  0.1326  0.2676 -0.2244
    1W        W45424   3.875  13.240   9.224  0.1137  0.1667 -0.0311
    1W        W45425   0.168  15.742   7.572  0.1266 -0.3300  0.2239
    1W        W45426  12.433  18.582   8.124 -0.2116  0.5421  0.4335
    1W        W45427   4.037  10.353   0.711  0.0487 -0.1969  0.0218
    1W        W45428  17.926   1.184   2.156 -0.2728  0.1026 -0.1540
    1W        W45429  24.603   3.274   8.649  0.0285 -0.2218 -0.0983
    1W        W45430   5.944  12.931   8.131  0.2284 -0.0368 -0.0329
    1W        W45431   2.779  24.216   7.339 -0.0265 -0.1870 -0.2246
    1W        W45432   8.360  12.224   8.345 -0.1836  0.1158  0.1469
    1W        W45433  28.936  26.034   1.640  0.1624  0.4673  0.1788
    1W        W45434  18.891   0.288   8.778 -0.0725 -0.0972  0.3185
    1W        W45435  26.129   2.628   1.772 -0.4852  0.0060 -0.1939
    1W        W45436   7.877  10.433   8.821 -0.0646 -0.1806 -0.1456
    1W        W45437   2.554  28.687   3.053  0.0866 -0.2091  0.0792
    1W        W45438  13.982   2.266   8.596 -0.0360  0.0208 -0.3678
    1W        W45439  17.534  29.390   0.022  0.0123  0.3140  0.2234
    1W        W45440  21.934  26.539   8.224 -0.0347  0.3083 -0.1859
    1W        W45441  24.181  22.818   6.242  0.1025  0.1347 -0.2563
    1W        W45442  16.044  24.555   7.168  0.2736 -0.0771 -0.1159
    1W        W45443  25.226  21.422   6.586 -0.1996 -0.1883 -0.2029
    1W        W45444  14.119  14.145   2.705  0.4335  0.1767  0.0354
    1W        W45445  19.153   9.825   6.655  0.1740 -0.1247  0.2352
    1W        W45446  24.136  22.151   1.491  0.1195  0.2697  0.1012
    1W        W45447  29.262  15.836   1.073 -0.0638  0.0769  0.0497
    1W        W45448   6.316  24.192   6.600 -0.1772  0.0127  0.1684
    1W        W45449  11.799  22.416   7.245  0.0002 -0.0011  0.0180
    1W        W45450  29.276  27.357   0.896  0.0063  0.0676  0.3031
    1W        W45451  22.658  14.461   8.271  0.0523 -0.0795  0.0211
    1W        W45452  16.967  24.515   0.503 -0.2029 -0.2783  0.3413
    1W        W45453   7.829  10.256   2.646  0.1152  0.2281  0.2384
    1W        W45454   4.622   5.709   0.171 -0.1113  0.0952  0.4086
    1W        W45455  12.593  27.875   8.171 -0.1049  0.0548 -0.0513
    1W        W45456  10.543  17.362   1.450  0.0262 -0.0688  0.2988
    1W        W45457  21.321  15.413   8.481 -0.2057 -0.0496 -0.1328
    1W        W45458  25.693   5.905   1.890  0.0520  0.0394  0.1310
    1W        W45459   6.971  25.978   0.368 -0.1384  0.1743 -0.2100
    1W        W45460  18.835  18.828   9.026  0.3278  0.0968 -0.1856
    1W        W45461   0.167  13.708   7.421 -0.0392 -0.0688 -0.1678
    1W        W45462  26.441   6.577   9.272 -0.3534  0.0244 -0.1177
    1W        W45463  15.986  22.465   5.679  0.0447 -0.1244  0.2621
    1W        W45464  25.714  27.951   7.965  0.0414  0.1357  0.0189
    1W        W45465  29.846   7.753   1.150 -0.1616 -0.4106 -0.3072
    1W        W45466   0.344  27.140   9.120 -0.0673  0.0097 -0.2211
    1W        W45467  22.958  26.328   2.583 -0.3742  0.3101  0.1825
    1W        W45468  25.999   5.757   0.939  0.1041 -0.1369 -0.2051
    1W        W45469  22.135  13.403   6.844  0.2128 -0.0753 -0.1908
    1W        W45470  12.261  20.071   6.509 -0.0516 -0.1047 -0.1381
    1W        W45471   3.313   1.095   1.340  0.1204 -0.0556 -0.0554
    1W        W45472   3.825  18.292   7.911 -0.2594  0.0625  0.3644
    1W        W45473  28.184  14.211   1.497 -0.0405  0.0584  0.2178
    1W        W45474  25.369  12.009   5.678 -0.1655 -0.0565  0.0381
    1W        W45475   7.164   0.181   7.353  0.1232 -0.0378 -0.0636
    1W        W45476  27.656  25.365   0.791 -0.0879 -0.0456 -0.2636
    1W        W45477  10.355  20.388   7.856 -0.2309  0.0374  0.0793
    1W        W45478   1.875  26.304   7.420 -0.1748 -0.0100  0.5467
    1W        W45479  13.411   0.810   1.977  0.1952 -0.0266 -0.0580
    1W        W45480  21.675  29.892   3.308 -0.1733  0.0354  0.0285
    1W        W45481  26.302   8.780   0.350  0.0667  0.1199  0.0469
    1W        W45482  27.214  15.681   6.670  0.0755 -0.0772 -0.0622
    1W        W45483   9.927   9.118   2.788 -0.1975  0.0089 -0.2855
    1W        W45484   4.524   3.950   8.748  0.1580  0.0384 -0.1359
    1W        W45485  29.096  14.861   0.720  0.0033  0.1336  0.1064
    1W        W45486  26.725  20.899   0.285  0.1047 -0.0672 -0.0394
    1W        W45487   4.999  21.695   0.551  0.0722  0.1245  0.1774
    1W        W45488   6.119   2.342   1.824  0.3339 -0.2047 -0.1664
    1W        W45489  21.738  24.694   0.500 -0.0802 -0.1252 -0.0388
    1W        W45490   0.932  17.824   8.878  0.0749 -0.2532 -0.5669
    1W        W45491  11.010  17.687   6.436  0.2259  0.0088 -0.1026
    1W        W45492  12.574  21.202   1.747 -0.0458 -0.0612  0.1121
    1W        W45493  25.980  22.004   6.638 -0.3231  0.0462  0.4553
    1W        W45494  28.462   1.381   8.239  0.0543 -0.1895  0.3478
    1W        W45495  25.275  17.917   6.597 -0.0141 -0.1693 -0.0805
    1W        W45496   0.818  15.041   8.511 -0.0045  0.0769 -0.0830
    1W        W45497  17.441  19.552   7.159 -0.1428  0.1239 -0.1117
    1W        W45498   3.809  22.673   0.218  0.1528 -0.2739  0.1990
    1W        W45499   2.902  26.455   8.692  0.2554 -0.0358 -0.1520
    1W        W45500   6.560  23.836   0.442 -0.1145  0.3283  0.0590
    1W        W45501  11.273  17.633   8.849  0.0013 -0.1859 -0.0403
    1W        W45502   1.295  10.690   7.858  0.3602 -0.1064 -0.0660
    1W        W45503  16.361   7.566   7.194 -0.1606  0.1210  0.0834
    1W        W45504  26.325   4.461   1.024 -0.1878 -0.2376 -0.4533
    1W        W45505  26.055  16.268   0.741  0.0143 -0.0962 -0.1030
    1W        W45506  15.598  10.300   6.589 -0.0425  0.2347  0.0276
    1W        W45507  24.204  28.029   8.783 -0.0771  0.0843 -0.1181
    1W        W45508  10.276   0.204   0.576  0.1223  0.0469  0.0231
    1W        W45509   3.926   7.746   7.875 -0.0942 -0.2902  0.4507
    1W        W45510   0.755  25.884   3.024  0.1432 -0.0253  0.0341
    1W        W45511   8.674   5.537   8.803 -0.2039  0.1115  0.3463
    1W        W45512  16.359  14.782   0.998 -0.0577 -0.0512  0.3173
    1W        W45513   5.001  17.866   7.618  0.0599  0.1121 -0.1796
    1W        W45514  28.742  26.964   8.371 -0.0650 -0.1023  0.0381
    1W        W45515  15.694  11.954   0.371 -0.2872 -0.0168  0.1179
    1W        W45516  20.298   6.220   0.146 -0.0919  0.2997 -0.2196
    1W        W45517  10.821  15.041   2.598 -0.0260  0.1774  0.0677
    1W        W45518  23.041   9.227   1.469 -0.0866  0.0179 -0.3336
    1W        W45519  28.156  10.266   7.971 -0.2742  0.1909 -0.0533
    1W        W45520   2.525  13.037   0.924  0.2108 -0.0436 -0.0851
    1W        W45521   2.382  13.857   1.408  0.1097  0.0427  0.2841
    1W        W45522  22.966  10.972   2.212  0.0302  0.0386  0.3822
    1W        W45523  21.008  23.474   7.541  0.0102 -0.0244  0.1332
    1W        W45524  12.890   8.072   1.456  0.3715 -0.1119 -0.3365
    1W        W45525  13.741  18.045   0.256 -0.2356  0.2471  0.0314
    1W        W45526  18.988   9.739   0.629 -0.1858 -0.0445 -0.0384
    1W        W45527   9.346  15.517   8.651 -0.1187  0.0056  0.0605
    1W        W45528  14.586  20.227   1.593 -0.0770  0.1817 -0.0767
    1W        W45529  14.257  22.490   0.718 -0.1481 -0.2822  0.1540
    1W        W45530   1.463   5.424   1.357 -0.1209  0.3089 -0.2849
    1W        W45531  11.712  28.532   8.379  0.0528 -0.1412  0.2846
    1W        W45532  24.030   7.157   8.930  0.1562 -0.0194  0.1500
    1W        W45533  25.046  14.352   6.792 -0.1234  0.0052  0.0168
    1W        W45534  19.426   3.745   0.602  0.0655 -0.1751  0.1150
    1W        W45535   3.253   8.336   6.726 -0.1150  0.1453  0.0978
    1W        W45536   6.354   6.733   1.988  0.0906 -0.1522  0.0445
    1W        W45537   6.886   9.444   0.432  0.1423  0.0737 -0.0791
    1W        W45538   5.030  23.045   2.246 -0.0337 -0.0955 -0.2713
    1W        W45539  17.237   0.114   8.955 -0.3268  0.0649 -0.0018
    1W        W45540   7.809  26.364   8.477  0.1596 -0.1469 -0.2022
    1W        W45541  17.315   4.394   0.883  0.1590  0.0839 -0.0773
    1W        W45542   5.840  13.426   1.953  0.2423  0.0859  0.2171
    1W        W45543  11.288  14.180   0.616  0.0039  0.1478  0.4483
    1W        W45544  21.634   6.191   2.308  0.1316 -0.2488  0.0631
    1W        W45545   8.922  21.084   1.401 -0.2327  0.0139 -0.0140
    1W        W45546  25.553   5.079   2.836 -0.2572 -0.0779 -0.2683
    1W        W45547  10.131  27.584   7.876  0.1489  0.0825 -0.1792
    1W        W45548  27.227  23.960   6.014  0.0325  0.0257 -0.1757
    1W        W45549  17.575   2.645   0.127  0.0106  0.2179 -0.0406
    1W        W45550  29.095   4.631   0.540 -0.0883 -0.0376 -0.0130
    1W        W45551  28.601   9.184   7.822  0.0826 -0.0509  0.0546
    1W        W45552  25.823  14.671   1.669  0.0033  0.1856  0.5376
    1W        W45553  17.888  21.158   0.517  0.0066  0.0985 -0.1066
    1W        W45554   9.678  15.813   1.780  0.0641  0.2221  0.0657
    1W        W45555  22.435   3.981   0.433 -0.2765  0.5140 -0.1309
    1W        W45556   2.382  16.283   9.186  0.1201 -0.1204  0.1565
    1W        W45557   7.529   0.640   2.498  0.1987  0.2045  0.2362
    1W        W45558  27.923   3.184   2.928 -0.0096  0.0261 -0.3638
    1W        W45559   3.401  23.139   6.847  0.1765 -0.2390 -0.1461
    1W        W45560   2.217   6.817   1.722 -0.0458 -0.1852 -0.3948
    1W        W45561  13.420  19.733   6.158 -0.1238  0.1552 -0.1254
    1W        W45562  13.295   4.812   8.741 -0.0790  0.0039  0.1308
    1W        W45563  29.110  20.920   1.929  0.0330 -0.0356 -0.1481
    1W        W45564  28.457  19.960   0.600 -0.0597 -0.2497  0.0744
    1W        W45565  23.103  12.757   0.327 -0.1236 -0.0075  0.1347
    1W        W45566   9.786  10.773   1.871  0.1182  0.0058 -0.3061
    1W        W45567   8.549  19.339   7.008 -0.0895 -0.1401 -0.2454
    1W        W45568  21.640   7.510   1.697 -0.2560 -0.0732  0.1502
    1W        W45569  10.420  23.427   6.246  0.0992  0.1817 -0.2082
    1W        W45570   5.378  24.141   6.823 -0.1709 -0.0767  0.1503
    1W        W45571  24.728  27.855   1.120  0.0302  0.2081  0.0129
    1W        W45572   6.818   5.838   6.765 -0.1162 -0.2555 -0.0111
    1W        W45573   1.928  11.648   7.136  0.0955  0.1392  0.2056
    1W        W45574  22.537   7.631   5.569  0.1978 -0.1021 -0.1192
    1W        W45575  21.928   4.658   2.829  0.0265 -0.0906 -0.1418
    1W        W45576  27.662  11.998   0.421  0.0918 -0.0144 -0.2454
    1W        W45577  29.839   8.512   6.923 -0.2354 -0.0815  0.0372
    1W        W45578  20.652  29.421   1.227 -0.0171  0.3331 -0.1312
    1W        W45579  11.123   7.982   1.356 -0.2321  0.0005  0.2361
    1W        W45580  19.519  16.096   0.983  0.1458 -0.1094 -0.0125
    1W        W45581  10.949  23.164   7.743 -0.0040 -0.0159  0.0731
    1W        W45582  27.065  11.726   7.488 -0.1956 -0.0285 -0.1404
    1W        W45583  13.838  28.228   6.785 -0.0599 -0.0585  0.1026
    1W        W45584   3.523  29.407   8.162 -0.1748 -0.1587 -0.4086
    1W        W45585   1.971   8.881   0.336 -0.1265 -0.0774 -0.1590
    1W        W45586  12.342   4.239   6.972 -0.2010 -0.2211  0.3215
    1W        W45587   2.437   8.653   0.409  0.0842  0.1280  0.0824
    1W        W45588   3.133  15.891   8.245  0.0794  0.0930  0.3797
    1W        W45589  21.688  10.632   1.656  0.0812 -0.0415 -0.0747
    1W        W45590  11.381   1.686   6.296 -0.1371  0.1429  0.1085
    1W        W45591   9.366   4.098   7.298 -0.1850 -0.2332 -0.0906
    1W        W45592   1.571   6.432   1.142 -0.0775  0.1525 -0.0278
    1W        W45593  28.274   9.327   7.011  0.2145 -0.0573 -0.2153
    1W        W45594  21.781  29.160   7.631  0.1911 -0.2366  0.1171
    1W        W45595   5.698   0.366   3.253  0.1768  0.3356  0.0465
    1W        W45596  16.831  10.901   8.314 -0.0188  0.4059  0.0864
    1W        W45597  12.226  23.738   1.432  0.0976 -0.0518  0.0289
    1W        W45598  16.938   1.326   7.536 -0.1325 -0.1458  0.0229
    1W        W45599  29.107  16.265   6.335  0.1137 -0.1029 -0.1627
    1W        W45600  26.769  11.944   1.644  0.1423 -0.2288  0.1437
    1W        W45601   1.618  26.140   1.895  0.0420  0.1887 -0.1597
    1W        W45602   9.727   1.619   2.004  0.3736 -0.3214  0.2331
    1W        W45603  27.405   3.895   1.835  0.2034 -0.3401  0.4296
    1W        W45604  26.910   0.798   1.877 -0.1320 -0.1112 -0.1015
    1W        W45605  25.703   8.559   2.982  0.1053  0.0629 -0.2553
    1W        W45606  20.872   8.810   1.638 -0.0614 -0.0184 -0.0593
    1W        W45607  25.783  28.765   2.180 -0.0581  0.1306 -0.0288
    1W        W45608   2.411  17.867   7.925 -0.1702  0.1464 -0.0863
    1W        W45609  13.746  13.544   2.813 -0.1891 -0.0370 -0.1057
    1W        W45610   7.927   2.878   7.264 -0.1794 -0.1924  0.0218
    1W        W45611   9.938   2.300   7.338  0.2675 -0.0194  0.0193
    1W        W45612  20.775  16.466   5.875 -0.0259 -0.0072 -0.2425
    1W        W45613  21.666  11.724   7.615  0.4060 -0.1150  0.0966
    1W        W45614   5.629  28.865   7.835 -0.0853 -0.3170  0.0019
    1W        W45615  18.768  17.923   9.205 -0.1073  0.0737  0.1183
    1W        W45616   4.302   8.441   2.279  0.0198 -0.1209 -0.1607
    1W        W45617  15.964  26.259   7.568 -0.0029 -0.0611  0.1807
    1W        W45618   5.785  11.502   7.080  0.0837 -0.3030 -0.0449
    1W        W45619  29.715  17.634   6.703  0.1803 -0.1403 -0.1467
    1W        W45620  11.584  11.963   6.303  0.0897 -0.0579 -0.2486
    1W        W45621   1.287  23.493   7.462  0.0132  0.0361 -0.1432
    1W        W45622  24.288   1.203   6.810  0.0460 -0.2469 -0.2804
    1W        W45623  24.803  12.679   8.084  0.0194 -0.0048  0.4363
    1W        W45624  20.727  18.018   0.344  0.0866  0.0717 -0.3080
    1W        W45625   3.898   7.764   8.337  0.0310  0.0283  0.3613
    1W        W45626   4.368  22.607   1.683  0.1682  0.1668  0.1694
    1W        W45627   4.434  28.142   8.615  0.4311 -0.0481 -0.1891
    1W        W45628  17.515   7.658   7.847 -0.0654 -0.0052 -0.4717
    1W        W45629  26.944   6.297   2.465 -0.1510 -0.0874 -0.1878
    1W        W45630  12.137  12.833   0.041  0.1904  0.0028 -0.2101
    1W        W45631  10.367  28.447   1.840  0.1158 -0.2167 -0.1355
    1W        W45632  22.372  29.840   0.351 -0.2542  0.0331  0.2720
    1W        W45633   2.790  27.804   2.655 -0.1537  0.1936 -0.1758
    1W        W45634   4.793  12.334   9.123 -0.4632  0.0396  0.0366
    1W        W45635   9.981  20.532   2.035  0.0033 -0.1992 -0.4101
    1W        W45636  29.593   4.844   2.719 -0.2043 -0.3570 -0.1211
    1W        W45637  15.506  24.663   8.006 -0.1790 -0.3249 -0.0496
    1W        W45638   7.446  25.825   9.171  0.3291  0.1037  0.0656
    1W        W45639  10.465  12.636   2.044 -0.3134  0.1430 -0.1078
    1W        W45640   2.823   5.821   9.052  0.0647  0.1919  0.0204
    1W        W45641  10.275  10.421   3.260 -0.1320  0.0783  0.1773
    1W        W45642  19.778   3.162   2.628  0.2582 -0.3638  0.2990
    1W        W45643  28.857  10.030   7.482 -0.0607  0.0610  0.2176
    1W        W45644  10.266  23.485   1.420 -0.1124 -0.0763 -0.1362
    1W        W45645   9.759  10.239   0.800  0.1757 -0.3149  0.1560
    1W        W45646  20.517  25.369   6.926  0.0525  0.1744  0.3114
    1W        W45647   8.799  18.779   1.133 -0.1725 -0.0164  0.2835
    1W        W45648  27.824   5.719   3.956  0.0633 -0.1057  0.2141
    1W        W45649  13.479  15.829   9.033  0.2161 -0.0686 -0.3968
    1W        W45650  26.376  28.743   0.825 -0.0812 -0.3005 -0.0386
    1W        W45651  18.878  27.252   0.509 -0.0365  0.3174  0.0481
    1W        W45652   3.209  20.997   9.191 -0.0202  0.1024 -0.0040
    1W        W45653  22.198   8.043   1.434  0.1436 -0.1025  0.1675
    1W        W45654  13.685  14.861   0.359  0.1209 -0.0754  0.1028
    1W        W45655   4.897   5.514   8.476 -0.4155 -0.3050 -0.0818
    1W        W45656  11.084  28.761   9.024  0.0093 -0.2494  0.2321
    1W        W45657  20.619   4.447   7.650  0.3985 -0.2841 -0.1215
    1W        W45658  19.226   9.979   8.753 -0.5672 -0.0546 -0.0725
    1W        W45659  19.833  17.607   0.110  0.1248 -0.0019  0.0730
    1W        W45660  13.906  29.932   8.456  0.2590 -0.1418  0.2290
    1W        W45661  21.879  12.942   8.630 -0.2174  0.0403 -0.2767
    1W        W45662  21.868  14.810   1.714 -0.0190 -0.2389  0.0718
    1W        W45663   8.512  28.892   7.925 -0.1459  0.3638 -0.0091
    1W        W45664   0.934  27.514   2.052 -0.0659  0.2744 -0.1544
    1W        W45665   0.747   5.167   1.637  0.0443  0.3666 -0.1313
    1W        W45666  30.324   4.741   2.921  0.1135  0.0949 -0.2535
    1W        W45667   8.173   6.709   0.140  0.2310  0.2735  0.1216
    1W        W45668  16.319   8.221   1.532  0.3560  0.1431  0.1139
    1W        W45669  23.305  27.304   6.914  0.1068  0.2914 -0.0077
    1W        W45670  16.308  26.715   1.309  0.2957  0.1887 -0.2776
    1W        W45671  17.875   7.495   2.208 -0.0905  0.3574  0.0133
    1W        W45672  28.899   4.718   0.067 -0.0461 -0.0389  0.0450
    1W        W45673  12.821   8.609   2.556  0.0696 -0.5074  0.0411
    1W        W45674  29.267   2.981   2.714 -0.1051 -0.1008 -0.1923
    1W        W45675  23.107  27.515   2.975 -0.1809 -0.0095 -0.1187
    1W        W45676  17.936  23.012   0.600  0.0113  0.0974  0.0300
    1W        W45677  29.585  14.545   8.366  0.0455 -0.0586  0.0009
    1W        W45678  17.159  10.459   7.551  0.4475 -0.2097  0.3486
    1W        W45679  28.951   8.722   8.717  0.1607 -0.0320  0.0364
    1W        W45680  28.403  18.692   8.782  0.1055 -0.1831 -0.0912
    1W        W45681  29.220   2.143   8.789  0.2040 -0.1439  0.3743
    1W        W45682  15.216  11.905   7.792  0.0138  0.0901  0.3308
    1W        W45683  21.009  17.058   0.249 -0.0723 -0.0611  0.1631
    1W        W45684  24.453  18.220   8.233 -0.0648  0.0004 -0.1714
    1W        W45685  27.660  16.195   9.212 -0.3849 -0.0077 -0.2919
    1W        W45686  22.516  14.904   8.510  0.2241 -0.0539 -0.1270
    1W        W45687  18.678  13.425   7.581 -0.1788  0.2076 -0.0683
    1W        W45688   3.564  22.291   7.023  0.4553  0.0863  0.1301
    1W        W45689   6.142   4.859   2.867  0.0727 -0.0116  0.0551
    1W        W45690   7.458   4.866   7.453 -0.2919  0.1302 -0.0298
    1W        W45691  16.688  18.016   1.061 -0.2093 -0.4738 -0.1560
    1W        W45692  17.684   9.909   1.885 -0.3613  0.1838 -0.3210
    1W        W45693  16.751   1.593   1.908  0.4585 -0.2298 -0.1241
    1W        W45694  25.752  27.293   2.064 -0.2797  0.1507  0.3459
    1W        W45695  29.530  20.450   9.002  0.0820 -0.1445  0.1698
    1W        W45696  24.559  28.612   0.318  0.0795 -0.1350  0.1528
    1W        W45697   1.557  24.402   7.271 -0.0753 -0.2630  0.0818
    1W        W45698  24.380  23.484   0.093 -0.0172  0.0123 -0.1659
    1W        W45699  26.557   8.586   6.649 -0.0922 -0.1086 -0.0728
    1W        W45700  19.518  27.459   8.096  0.3490  0.0907  0.1272
    1W        W45701  19.691   8.754   8.854 -0.1940 -0.1564  0.3209
    1W        W45702  16.959   3.748   8.062 -0.2239 -0.0581  0.2113
    1W        W45703  23.203  20.399   7.473  0.1625 -0.0351 -0.0950
    1W        W45704  19.138  15.103   8.657 -0.1690 -0.2385 -0.0311
    1W        W45705  29.324  28.367   2.142 -0.3140 -0.1319  0.1256
    1W        W45706   9.161  21.962   1.238 -0.0775  0.1488 -0.1964
    1W        W45707  22.865  29.281   8.469 -0.1472  0.1591  0.2836
    1W        W45708  13.772  16.206   0.203 -0.0444 -0.0653 -0.0753
    1W        W45709  30.030   7.371   0.879 -0.0550  0.1444  0.1298
    1W        W45710  18.716  12.523   1.014 -0.0904  0.0698  0.1840
    1W        W45711   2.381  16.497   1.128 -0.1472  0.1127  0.1717
    1W        W45712  26.032   6.700   0.371 -0.1095 -0.0631 -0.0739
    1W        W45713  16.678  11.542   1.645 -0.1179  0.0510  0.0382
    1W        W45714   8.437  15.805   9.096 -0.1167 -0.3270  0.2029
    1W        W45715   4.874   9.244   8.050 -0.1934 -0.2743 -0.1760
    1W        W45716   0.173  25.691   1.015 -0.3940  0.2604 -0.1268
    1W        W45717  17.289  29.720   7.757  0.0669 -0.1414  0.1334
    1W        W45718  28.359  18.130   8.421 -0.0374  0.0367 -0.2247
    1W        W45719  19.248   2.578   6.665 -0.0759  0.0126 -0.2051
    1W        W45720  16.112  20.014   0.543 -0.0100 -0.0968 -0.3760
    1W        W45721  14.854  17.327   1.228 -0.0581 -0.1132  0.1345
    1W        W45722   7.208  21.289   8.724 -0.0857  0.1895 -0.1085
    1W        W45723  14.047  15.997   2.493 -0.1377 -0.1302 -0.0901
    1W        W45724  27.678  13.141   8.214  0.1863  0.0082 -0.1039
    1W        W45725  25.187  14.741   1.341 -0.3581  0.0711  0.2077
    1W        W45726  14.977  16.345   7.847  0.1023  0.0694 -0.0007
    1W        W45727   5.858   2.507   0.939  0.2823 -0.0393 -0.2678
    1W        W45728  15.150   1.483   7.344  0.1032 -0.0621 -0.0342
    1W        W45729  20.901  21.374   7.305 -0.3269  0.1850  0.0546
    1W        W45730  21.191  23.272   1.167 -0.3343  0.2348 -0.0331
    1W        W45731  25.581  29.185   2.394 -0.0824  0.2584  0.0419
    1W        W45732   6.626   5.551   0.572  0.3448 -0.0169  0.1155
    1W        W45733  20.445  16.243   8.959 -0.0489 -0.0459  0.0307
    1W        W45734  19.198  17.131   8.452  0.0106 -0.1900 -0.1426
    1W        W45735   1.376  14.524   0.649 -0.4253  0.0924  0.4489
    1W        W45736   8.649   0.865   1.154 -0.0378 -0.3409  0.0202
    1W        W45737  11.101  23.608   1.586 -0.1956 -0.1686 -0.1141
    1W        W45738  20.956  16.561   7.904 -0.3337  0.0943  0.1272
    1W        W45739   5.691  17.802   9.239 -0.1959  0.0358  0.1278
    1W        W45740  26.116  12.157   0.468 -0.0078  0.0125 -0.2100
    1W        W45741  12.778   4.255   3.067  0.1950 -0.0191  0.1844
    1W        W45742  18.009   5.834   1.490  0.1019 -0.0131  0.0974
    1W        W45743  29.891  29.717   0.979 -0.0681 -0.1572  0.0662
    1W        W45744  23.284   2.869   0.712 -0.2451  0.1957  0.0972
    1W        W45745  22.011  21.517   9.136  0.0091  0.3578 -0.1065
    1W        W45746  18.259  20.022   8.454  0.0136 -0.3085  0.0751
    1W        W45747  13.790   1.206   7.668 -0.1813 -0.1643  0.0539
    1W        W45748   4.672   6.536   6.945 -0.0059  0.0592 -0.3454
    1W        W45749  25.663  22.917   9.112  0.0889 -0.1928 -0.2752
    1W        W45750  10.872  17.604   3.231  0.2333  0.0488  0.1004
    1W        W45751  10.914  16.346   7.474  0.1082 -0.2330  0.0584
    1W        W45752  19.691  14.846   6.232  0.2374 -0.1018  0.1969
    1W        W45753   8.284  29.763   8.256  0.0903 -0.1223 -0.0571
    1W        W45754  20.491   6.879   8.297 -0.0423  0.3637 -0.0838
    1W        W45755   9.143  12.053   7.238 -0.2857  0.0773 -0.0192
    1W        W45756  18.526   2.024   0.680  0.1014  0.2920  0.1111
    1W        W45757  25.378  22.748   8.033  0.0405  0.1372 -0.1305
    1W        W45758   2.460   0.368   0.115 -0.2876  0.0465  0.0162
    1W        W45759  28.881   4.152   0.651  0.0996 -0.0079 -0.1299
    1W        W45760   2.120  28.123   0.724 -0.3286  0.2695  0.0951
    1W        W45761   5.729   8.431   3.250  0.1152  0.1533 -0.0306
    1W        W45762  19.730  28.705   0.462 -0.1509 -0.3250  0.1816
    1W        W45763  25.455  16.328   0.142 -0.3749 -0.0760 -0.0817
    1W        W45764  28.878  26.338   1.097 -0.0249 -0.2007  0.0529
    1W        W45765  14.709   2.502   1.345  0.0468 -0.2485  0.1001
    1W        W45766   3.966   3.045   7.166  0.0484  0.2296 -0.0931
    1W        W45767   5.502   6.290   0.207  0.3754 -0.1137 -0.0135
    1W        W45768  16.502   3.903   6.736 -0.2487  0.2444  0.1044
    1W        W45769   3.878  15.144   1.190 -0.2633  0.0596 -0.1426
    1W        W45770  22.289  23.414   7.356 -0.4220  0.0186  0.3551
    1W        W45771  18.260  25.588   1.208  0.1706 -0.3890 -0.0249
    1W        W45772   8.252  17.926   0.130  0.1882  0.0452  0.1312
    1W        W45773  12.664  30.323   8.414 -0.2509  0.0751 -0.0281
    1W        W45774   6.000   0.875   1.664 -0.0143  0.2483 -0.3480
    1W        W45775  10.035  23.128   6.992 -0.2967 -0.1549 -0.4001
    1W        W45776   4.261  20.500   1.222  0.1299  0.2176 -0.0997
    1W        W45777  15.618  28.580   2.254 -0.0064  0.2203 -0.3651
    1W        W45778   3.310   5.899   7.314 -0.1089  0.1564 -0.2742
    1W        W45779  23.263   8.510   1.892  0.3754 -0.0027 -0.1538
    1W        W45780  11.631  20.672   6.772  0.2648  0.0203 -0.0641
    1W        W45781   4.127  29.563   0.437  0.3018 -0.1110  0.0056
    1W        W45782  13.445   3.504   6.672  0.1305  0.2769  0.1845
    1W        W45783  17.644  10.595   0.454  0.0915 -0.1056  0.0813
    1W        W45784  29.739  20.978   7.401  0.1162 -0.0874 -0.1457
    1W        W45785   8.357   0.948   0.638 -0.1106 -0.0362 -0.1587
    1W        W45786  25.891  11.370   1.592 -0.2466 -0.1418  0.1291
    1W        W45787   1.559  17.407   1.401 -0.0867 -0.0133  0.1497
    1W        W45788   0.247  17.334   8.180  0.2190  0.5355 -0.4824
    1W        W45789  16.179  19.908   6.765 -0.1541  0.3691  0.2608
    1W        W45790  17.063  27.689   2.607 -0.0115  0.2402  0.5357
    1W        W45791  26.839   4.502   1.150  0.1743 -0.1814  0.1818
    1W        W45792   6.876   1.106   0.582 -0.0530  0.2994 -0.2378
    1W        W45793  12.883  22.638   2.103  0.1058  0.0793  0.0349
    1W        W45794   9.407   8.133   6.892  0.1156 -0.0192  0.0067
    1W        W45795   1.232  17.522   1.014 -0.0928 -0.2655  0.1634
    1W        W45796   0.121   7.867   1.388  0.1747 -0.0397  0.0035
    1W        W45797  12.091  14.095   2.303  0.2198  0.1190 -0.1099
    1W        W45798  29.618   2.876   7.657  0.0828 -0.3326  0.1975
    1W        W45799   0.064  21.552   6.725  0.1559  0.0052 -0.3634
    1W        W45800  26.902  23.164   8.947  0.0343  0.0815 -0.0563
    1W        W45801  30.168  26.367   7.787 -0.0214  0.1032  0.0063
    1W        W45802  23.615  25.984   7.928  0.4869  0.2798 -0.1617
    1W        W45803  25.700   5.205   0.494  0.5062  0.2642 -0.3137
    1W        W45804  13.202   1.101   7.626 -0.1630 -0.0053 -0.1168
    1W        W45805  11.204   4.974   6.907 -0.0675 -0.0115  0.0668
    1W        W45806  10.888  12.270   1.792  0.0518 -0.3695  0.3199
    1W        W45807   8.912   9.658   1.932 -0.1720 -0.0463 -0.1699
    1W        W45808  17.161   7.949   0.825 -0.2244 -0.1908 -0.0465
    1W        W45809  19.632  15.778   1.468  0.0991 -0.2057  0.0227
    1W        W45810   8.407   5.684   1.885 -0.0899  0.2214 -0.2625
    1W        W45811  19.154  18.100   1.040  0.1280 -0.0557  0.1964
    1W        W45812  29.812  28.613   7.377 -0.2781  0.1577  0.2449
    1W        W45813  19.775  19.240   7.317  0.0756  0.0321  0.2508
    1W        W45814  19.584  26.389   0.603 -0.0640 -0.1801  0.1284
    1W        W45815  23.511   5.567   8.558  0.4770 -0.0346 -0.1976
    1W        W45816  27.392   4.661   0.861 -0.0153 -0.0855 -0.2955
    1W        W45817  19.910  26.236   0.255  0.1175  0.2997  0.0178
    1W        W45818   5.988  25.754   0.128 -0.2687 -0.0362  0.1846
    1W        W45819  30.221  28.565   0.412 -0.1214 -0.0394 -0.0384
    1W        W45820  11.817   1.378   9.247  0.1188  0.1578 -0.3303
    1W        W45821  13.514  18.761   6.794 -0.0343 -0.0502  0.0505
    1W        W45822  12.878  12.670   1.875 -0.1084 -0.0467 -0.0126
    1W        W45823   4.409  27.449   8.052  0.1847  0.0475  0.0084
    1W        W45824  16.366  12.380   4.017 -0.0871  0.3010 -0.0140
    1W        W45825  21.215  15.119   8.964 -0.1844 -0.1134  0.0703
    1W        W45826  25.381  23.820   6.933  0.2080  0.1286  0.0066
    1W        W45827  12.633   6.348   6.046  0.1656 -0.2132 -0.3091
    1W        W45828   9.969  26.683   6.659  0.3621 -0.2067  0.0518
    1W        W45829  27.194   4.409   1.892 -0.2555  0.0972  0.2602
    1W        W45830  16.852  28.434   8.267 -0.0192  0.2169 -0.1430
    1W        W45831   2.052  14.323   0.272  0.3258 -0.3064 -0.2412
    1W        W45832   2.711   9.696   0.455 -0.1129 -0.1557 -0.0202
    1W        W45833  20.214   7.176   9.124 -0.1003 -0.2710  0.0576
    1W        W45834  21.927  29.428   8.732 -0.1695  0.1309  0.1719
    1W        W45835  23.314  22.302   1.927 -0.0395  0.2238 -0.0556
    1W        W45836  13.625   1.009   8.435  0.2632 -0.0618  0.0378
    1W        W45837  18.597  25.092   1.868 -0.1301  0.1631  0.1804
    1W        W45838  29.969  27.085   0.395 -0.1941 -0.2593  0.1963
    1W        W45839   5.096   8.423   1.786  0.0514 -0.0947  0.2389
    1W        W45840  28.631  26.133   8.494  0.0384 -0.0071  0.1655
    1W        W45841  20.606   0.171   6.186  0.0527  0.1302 -0.3594
    1W        W45842   0.969   7.955   1.703  0.0092  0.0739  0.0213
    1W        W45843  16.533  23.929   1.033  0.1254 -0.2285  0.1721
    1W        W45844  18.185  20.983   0.905 -0.0323  0.2262  0.1674
    1W        W45845   8.107  20.597   6.899 -0.0754 -0.0668  0.2840
    1W        W45846  11.704  28.586   7.196 -0.3262 -0.0740  0.4341
    1W        W45847  12.020  22.810   8.007 -0.0480  0.0567  0.0031
    1W        W45848   5.244  10.649   9.094 -0.2342 -0.2863 -0.1951
    1W        W45849   1.704   8.352   7.734  0.1365 -0.0538 -0.1022
    1W        W45850   9.690  29.068   2.416  0.1955  0.2582 -0.0144
    1W        W45851  17.162  21.149   2.267 -0.2929  0.0310  0.1766
    1W        W45852  16.190   1.625   0.924  0.1845 -0.0101 -0.1192
    1W        W45853   2.832  17.235   7.841 -0.0380  0.0737  0.0419
    1W        W45854  19.738   7.534   8.357 -0.1013  0.0486  0.0703
    1W        W45855   6.471  16.504   1.233 -0.0828  0.0168 -0.1209
    1W        W45856  15.241   6.329   1.495 -0.1567 -0.1750 -0.1542
    1W        W45857  20.880   3.377   2.510 -0.0389  0.2275 -0.2496
    1W        W45858   4.449  10.454   9.099  0.2864 -0.3390  0.1682
    1W        W45859  23.293  19.117   0.103 -0.0574  0.2826 -0.0369
    1W        W45860  19.421  12.960   6.443  0.3956 -0.0224  0.0664
    1W        W45861  16.941  18.986   1.951 -0.0159 -0.0013  0.3914
    1W        W45862   9.601  17.449   8.867  0.1040 -0.1276 -0.0236
    1W        W45863  23.415  20.835   6.640 -0.1146 -0.3357  0.0626
    1W        W45864  22.061  16.228   0.869  0.0520 -0.1759  0.1380
    1W        W45865  13.545  17.305   0.951  0.2488 -0.1649 -0.0766
    1W        W45866  19.734  28.689   2.648 -0.1282  0.0232 -0.0124
    1W        W45867  18.193   6.424   7.773  0.0017 -0.2909  0.0007
    1W        W45868   4.748  24.009   8.365 -0.3397 -0.0553 -0.0381
    1W        W45869   0.988  21.721   0.942  0.0195  0.1109 -0.3323
    1W        W45870  25.328  29.719   0.514 -0.0701 -0.2452 -0.1200
    1W        W45871  24.819  18.431   0.880  0.1130  0.1822  0.0320
    1W        W45872   5.188  17.193   9.261 -0.0673  0.0149  0.2785
    1W        W45873  13.275   5.258   0.900 -0.2629  0.3310 -0.0235
    1W        W45874   9.126  19.645   9.102  0.0826  0.3562 -0.0533
    1W        W45875  19.418   8.928   5.944  0.0134 -0.0703  0.0441
    1W        W45876   7.016  28.495   0.300 -0.0349 -0.2464  0.2786
    1W        W45877  18.446  28.121   2.182  0.0039 -0.1905  0.1390
    1W        W45878   8.347   6.947   7.944  0.0573  0.2361 -0.0484
    1W        W45879   4.110  15.400   2.001 -0.0182 -0.0281 -0.2543
    1W        W45880  24.147   0.705   2.632  0.1124  0.1216 -0.1496
    1W        W45881  21.159   5.867   6.220 -0.1258 -0.1044  0.2691
    1W        W45882  20.829  14.680   0.367 -0.2898  0.2939 -0.0192
    1W        W45883  22.087  24.549   7.515 -0.1204 -0.0530  0.0774
    1W        W45884  20.410   4.138   0.873 -0.1381 -0.1898 -0.1057
    1W        W45885  17.697  28.689   1.614 -0.1273 -0.0672  0.3364
    1W        W45886  16.475  15.551   1.051  0.1415 -0.2202  0.1039
    1W        W45887  13.198  11.497   1.962  0.2266 -0.1086  0.2036
    1W        W45888  11.814   5.950   8.834  0.0101 -0.2477  0.1703
    1W        W45889  23.776  22.937   6.984 -0.2264  0.0583  0.1718
    1W        W45890  16.677   4.229   0.803  0.4314  0.1775  0.1466
    1W        W45891  14.226  22.480   7.208  0.0720 -0.0102 -0.2386
    1W        W45892  19.687  24.574   5.914  0.0421  0.0416  0.0218
    1W        W45893  18.772   8.059   9.052 -0.0432  0.0594 -0.3250
    1W        W45894   8.096   3.508   1.346 -0.1090 -0.2830  0.1495
    1W        W45895  19.412  10.152   0.211  0.3279 -0.0345  0.3613
    1W        W45896  25.312   9.617   7.669  0.1173  0.0744  0.2907
    1W        W45897   5.718  15.498   1.419 -0.3908  0.0668  0.2932
    1W        W45898  14.399  19.354   7.485  0.1562  0.0984 -0.0788
    1W        W45899  26.359   3.752   9.121 -0.0831  0.0158  0.2422
    1W        W45900   8.899  15.937   7.718  0.3388 -0.2271 -0.2855
    1W        W45901  26.954  25.302   0.180  0.1934 -0.2485  0.1700
    1W        W45902  22.896   3.592   7.157  0.2399  0.2457  0.1272
    1W        W45903  23.466  28.903   2.869 -0.0838 -0.1616 -0.0639
    1W        W45904   9.146  18.320   1.933  0.4070  0.1569 -0.2168
    1W        W45905  23.721   6.018   1.041 -0.0839 -0.1089  0.2303
    1W        W45906  18.001   5.027   7.012 -0.3311 -0.2746 -0.1019
    1W        W45907  16.185  11.459   2.856 -0.0332  0.1402  0.1248
    1W        W45908  28.140   1.797   1.639  0.0476 -0.1045  0.1811
    1W        W45909   8.584  10.252   3.131 -0.1786  0.0069 -0.1730
    1W        W45910   6.103  29.294   9.064 -0.2684 -0.1284 -0.1402
    1W        W45911  18.601  10.454   0.052  0.1450 -0.1394  0.1950
    1W        W45912   3.500  26.501   1.559 -0.0455  0.0410  0.0672
    1W        W45913  13.591   1.234   0.910  0.1037 -0.0512 -0.0557
    1W        W45914   8.055  25.179   0.564 -0.2802 -0.0303  0.0195
    1W        W45915  11.626   3.328   9.239 -0.2731  0.2060  0.3013
    1W        W45916  26.993  26.741   8.644  0.1312 -0.0299  0.0534
    1W        W45917  27.234  27.763   1.492  0.3091  0.0614  0.2077
    1W        W45918  28.829   0.620   2.700  0.0303 -0.0779  0.2753
    1W        W45919  28.434  23.454   7.421 -0.0723 -0.1442 -0.1224
    1W        W45920  28.508  28.059   8.848 -0.2064 -0.1181  0.0421
    1W        W45921  28.252   2.321   1.398  0.1963 -0.0691 -0.1099
    1W        W45922   9.732  21.715   6.922  0.2481 -0.1608  0.1019
    1W        W45923   3.393  24.617   1.691 -0.0022 -0.0873  0.1111
    1W        W45924  20.497   1.916   7.179  0.1668 -0.0904  0.0353
    1W        W45925  10.573  26.845   9.273 -0.0082  0.1147  0.0507
    1W        W45926   8.782   1.698   3.484  0.1043 -0.0025 -0.3711
    1W        W45927  13.222  26.306   1.289  0.2251 -0.3308 -0.0764
    1W        W45928  11.677  29.048   1.900  0.0342 -0.0193  0.1211
    1W        W45929   1.746   5.854   1.148  0.0291  0.1106  0.2418
    1W        W45930  16.261  14.751   9.231  0.2318  0.0831  0.0443
    1W        W45931  28.415   1.026   2.000 -0.4546  0.0270  0.0801
    1W        W45932  22.551  11.614   6.786  0.0255 -0.1214  0.0230
    1W        W45933  26.316  17.669   1.592  0.2005  0.1218  0.0721
    1W        W45934  10.974  16.620   0.422  0.0683 -0.2849 -0.2602
    1W        W45935   0.250  13.449   7.813  0.0502  0.0225  0.2667
    1W        W45936  13.946  17.910   2.073 -0.1866 -0.3092  0.1510
    1W        W45937  20.994  21.547   6.641 -0.1900 -0.0470 -0.2352
    1W        W45938  22.424  27.339   6.259 -0.0136 -0.2060 -0.3160
    1W        W45939   3.249  28.675   7.411  0.0626  0.0685  0.0315
    1W        W45940  26.728  11.024   8.086 -0.4329 -0.0284 -0.0365
    1W        W45941  11.799  26.123   1.380 -0.3688  0.0402  0.0156
    1W        W45942   2.621  29.998   3.321  0.1053 -0.3761  0.1078
    1W        W45943   7.738   6.178   9.205 -0.1719 -0.2461  0.1265
    1W        W45944  23.237  23.071   0.507  0.3176  0.0806 -0.1500
    1W        W45945  29.503  24.929   8.862  0.0269  0.1580  0.1599
    1W        W45946  14.532  28.525   9.210 -0.2797  0.0496  0.0475
    1W        W45947   5.178   2.361   1.518 -0.2603 -0.0748  0.1151
    1W        W45948   1.350   9.445   2.365  0.1695  0.3460  0.1322
    1W        W45949  26.074  26.484   8.473  0.2211  0.0016  0.0142
    1W        W45950   4.704  25.825   7.795  0.0283 -0.1584  0.0367
    1W        W45951  28.884  11.549   8.816 -0.0089 -0.1021 -0.3586
    1W        W45952  28.167  29.051   1.408 -0.2964 -0.0990 -0.3188
    1W        W45953  23.251   3.653   8.689  0.0042  0.5267  0.1926
    1W        W45954  18.685  28.951   8.191  0.0867  0.0154 -0.0714
    1W        W45955  10.285  22.376   8.663  0.0214 -0.0902 -0.1316
    1W        W45956  10.521  17.503   7.270 -0.1464 -0.0794  0.0685
    1W        W45957   5.526   0.315   7.235 -0.1235 -0.2093  0.1220
    1W        W45958  14.712   3.380   7.656 -0.1920 -0.0495  0.2447
    1W        W45959   2.277   8.119   9.014 -0.1462 -0.0323 -0.2829
    1W        W45960  19.976  15.780   8.321 -0.5132  0.0516  0.5180
    1W        W45961   3.056  22.947   0.955  0.1199 -0.1145  0.0024
    1W        W45962  28.076  14.893   7.510  0.1008 -0.1184 -0.2764
    1W        W45963  21.137   6.491   7.222 -0.2481 -0.1554  0.0491
    1W        W45964  23.647  15.223   7.892 -0.0724 -0.0544 -0.1270
    1W        W45965  30.102   8.872   6.623  0.2141  0.0674 -0.1060
    1W        W45966  24.424  17.650   7.081  0.1158 -0.0157 -0.2639
    1W        W45967  14.816  14.996   0.300 -0.0798 -0.0802  0.1150
    1W        W45968   6.745  22.210   6.694 -0.1961  0.0678 -0.0091
    1W        W45969   0.982  16.421   1.185  0.0523 -0.0825  0.0061
    1W        W45970  10.119  21.926   0.862 -0.1916 -0.1912 -0.0739
    1W        W45971  14.254  17.746   6.573  0.0117  0.1979  0.0864
    1W        W45972  28.771  18.398   7.693 -0.3266 -0.0771 -0.1064
    1W        W45973   8.592  15.049   7.828  0.0242  0.3142  0.2583
    1W        W45974  23.943  20.154   7.114  0.1151 -0.1036  0.1912
    1W        W45975   7.100   7.737   2.426  0.0017 -0.0318  0.0439
    1W        W45976  20.821   0.547   8.725  0.0130  0.0088  0.0287
    1W        W45977  10.436  17.160   8.848 -0.1805 -0.0104  0.1359
    1W        W45978   5.054   8.560   9.079 -0.2744 -0.2961 -0.2636
    1W        W45979  15.773   0.873   1.682  0.1654  0.1073  0.2643
    1W        W45980  20.461  15.294   6.522  0.0257  0.0918  0.0537
    1W        W45981  16.464  22.004   7.655 -0.0219 -0.3201  0.2791
    1W        W45982  15.800  17.150   7.641 -0.1242  0.1660 -0.2092
    1W        W45983   7.398   5.139   0.584  0.3604  0.1923  0.0547
    1W        W45984  16.409  20.765   2.035  0.0144  0.1705 -0.0113
    1W        W45985  15.462   2.732   0.811 -0.1262 -0.1714 -0.1033
    1W        W45986  11.244  10.942   0.169 -0.0608 -0.2006 -0.0787
    1W        W45987  24.058   6.666   9.176 -0.0292 -0.1750 -0.4127
    1W        W45988   1.184  25.280   2.200 -0.4464 -0.0510  0.0206
    1W        W45989  18.970  21.733   7.748  0.0638  0.0439 -0.1063
    1W        W45990  27.560   1.136   2.706  0.1232  0.2085 -0.2177
    1W        W45991   1.549   0.087   1.599  0.0707  0.2129 -0.1209
    1W        W45992  20.613  24.372   2.209  0.0658  0.0841  0.1285
    1W        W45993  15.575  29.411   7.078 -0.0430  0.1153 -0.0006
    1W        W45994   2.913   8.328   7.132 -0.2754 -0.1806  0.1082
    1W        W45995  13.292   1.190   0.564 -0.0681 -0.1052  0.0148
    1W        W45996   4.682  28.711   6.849 -0.2766 -0.0630  0.1546
    1W        W45997   8.470  15.411   0.195  0.1542  0.0428  0.1719
    1W        W45998   5.945  28.119   1.539 -0.2499 -0.0794 -0.1617
    1W        W45999  26.643  29.310   1.521  0.0221 -0.0205  0.0190
    1W        W46000  25.406  27.337   1.000  0.1370 -0.0853 -0.0131
    1W        W46001  30.252  18.301   0.586  0.1083  0.0050  0.2230
    1W        W46002  29.193  18.981   9.245 -0.0510  0.0344  0.0326
    1W        W46003  24.210  28.141   6.974  0.0162  0.2232 -0.1231
    1W        W46004  22.066   6.363   6.829  0.2088  0.1030 -0.0095
    1W        W46005  28.906  12.005   1.662 -0.0445 -0.1790 -0.2010
    1W        W46006  29.346  27.673   9.091  0.1697  0.0582 -0.2313
    1W        W46007  14.795   7.870   1.923 -0.1470 -0.1930  0.4549
    1W        W46008  23.810  19.332   8.195  0.1141 -0.1008  0.1153
    1W        W46009  14.818  17.083   7.221 -0.1754  0.1909  0.1588
    1W        W46010   3.236  21.429   7.620  0.0416  0.0714 -0.0717
    1W        W46011  19.083  19.810   6.375  0.1564  0.1824  0.0601
    1W        W46012  29.957  25.364   7.810 -0.2075 -0.0382 -0.1650
    1W        W46013  14.313   4.987   8.376  0.1389 -0.1862  0.1207
    1W        W46014   4.067  14.041   2.243 -0.1707 -0.2812  0.2826
    1W        W46015  14.344   5.169   7.036 -0.1257 -0.0012 -0.1807
    1W        W46016   4.291  28.968   7.525  0.0383  0.0157 -0.2272
    1W        W46017  25.640  20.440   9.007 -0.0752 -0.2619 -0.0868
    1W        W46018   1.402   8.682   8.190  0.1982  0.1802 -0.0052
    1W        W46019  12.811   0.687   2.796 -0.1154  0.0834  0.1792
    1W        W46020   7.311   6.719   3.374 -0.0032 -0.0616  0.1281
    1W        W46021  16.060  28.021   8.073 -0.1093  0.3330  0.1214
    1W        W46022  26.106   2.461   2.743 -0.1865 -0.2596  0.2881
    1W        W46023   1.440   8.219   7.072 -0.2643 -0.0903 -0.0817
    1W        W46024   9.458   8.391   7.962  0.1055  0.1397  0.3092
    1W        W46025  20.944   1.824   2.427  0.0430  0.1618 -0.2551
    1W        W46026   0.400  14.947   1.450  0.1491 -0.0008  0.0343
    1W        W46027   3.280  26.790   7.202 -0.1991  0.0255 -0.1658
    1W        W46028  18.056  19.750   2.554 -0.0154  0.1630  0.0040
    1W        W46029   7.865  29.377   9.025 -0.1668 -0.2651 -0.0811
    1W        W46030  25.788   8.966   8.779 -0.0431  0.0674  0.0761
    1W        W46031   1.609  13.950   7.051  0.3408  0.0697 -0.1530
    1W        W46032  11.551   9.612   1.900 -0.0329  0.0017  0.3370
    1W        W46033  29.730  28.389   2.449  0.0202 -0.0739 -0.0094
    1W        W46034  26.966  25.678   6.367 -0.0363 -0.2912  0.0669
    1W        W46035   7.968  16.927   0.718 -0.1795  0.0035 -0.0811
    1W        W46036   7.157   4.693   2.919 -0.0932  0.5301  0.1002
    1W        W46037  28.288  18.550   7.733 -0.0540 -0.0104  0.1118
    1W        W46038   4.855   2.572   8.989  0.5421  0.1614  0.3563
    1W        W46039   2.037  27.277   8.441  0.1214 -0.1128 -0.2702
    1W        W46040  10.104  16.343   8.854 -0.0575  0.1240  0.1146
    1W        W46041  24.176  30.143   7.762  0.1166 -0.0445 -0.1457
    1W        W46042  28.472   4.259   7.613  0.1910  0.0452 -0.0080
    1W        W46043  20.616   7.631   1.634  0.2416  0.1106  0.0812
    1W        W46044   9.956   4.847   2.523  0.1119  0.0506  0.1692
    1W        W46045  12.149  23.076   9.111 -0.0850 -0.0872  0.3984
    1W        W46046  18.688  22.431   7.743 -0.1486  0.0153 -0.1843
    1W        W46047   5.603  12.894   1.409 -0.1833 -0.2365 -0.0024
    1W        W46048  27.209   9.448   0.971  0.3403 -0.2366  0.0723
    1W        W46049  29.701   1.630   2.804  0.2589 -0.1312 -0.0153
    1W        W46050  13.641  26.704   7.758 -0.0325 -0.1746 -0.0187
    1W        W46051  15.125   6.150   0.115 -0.0509  0.0015 -0.2357
    1W        W46052  19.142  21.385   1.057  0.1274 -0.1220  0.0202
    1W        W46053  19.128   5.304   6.630 -0.0612 -0.0035 -0.1494
    1W        W46054  18.317  28.637   1.406 -0.1008 -0.1951 -0.2284
    1W        W46055   4.756  21.169   1.865 -0.1307 -0.2520  0.0593
    1W        W46056  21.030  27.395   0.944 -0.1509  0.0097 -0.3124
    1W        W46057   6.564  20.026   1.408 -0.3314  0.1171 -0.0906
    1W        W46058  11.702  15.309   0.784 -0.2907 -0.3219 -0.1492
    1W        W46059  20.087  19.665   0.556  0.3503  0.1884 -0.4411
    1W        W46060  19.000   9.664   8.361 -0.0794  0.5134  0.3975
    1W        W46061   1.741  18.269   0.069  0.0152 -0.0752 -0.4116
    1W        W46062  21.918  23.072   6.637  0.2860  0.0993  0.4153
    1W        W46063  15.576   4.026   8.263  0.0220 -0.1707  0.1588
    1W        W46064  22.192  23.572   2.400 -0.4056  0.0420 -0.2506
    1W        W46065  25.108   2.110   7.718  0.0347  0.1915 -0.1067
    1W        W46066   2.335   0.689   8.125 -0.0611 -0.0446  0.1444
    1W        W46067   6.960   5.064   2.685 -0.0446 -0.1194  0.0156
    1W        W46068  25.797   7.509   7.112 -0.1686  0.3230 -0.1639
    1W        W46069  10.656  19.761   5.644 -0.0206  0.0874 -0.0398
    1W        W46070   5.607  25.877   0.449 -0.0090 -0.1126  0.1530
    1W        W46071  29.640   3.095   8.586 -0.1768 -0.0692  0.1731
    1W        W46072  23.076  10.454   1.999  0.2606 -0.1581 -0.1691
    1W        W46073  25.189   9.529   0.193 -0.1975 -0.1339  0.1100
    1W        W46074   0.334   6.362   2.119  0.4832  0.2146  0.1259
    1W        W46075  19.767  10.131   7.430  0.2351 -0.0400 -0.0332
    1W        W46076  29.534   5.443   8.297  0.1354 -0.0067 -0.1547
    1W        W46077  25.321  24.445   0.081 -0.1049  0.0443  0.0460
    1W        W46078  20.448  23.243   5.629 -0.1127 -0.3162 -0.0978
    1W        W46079  26.027   0.028   2.479  0.1171 -0.0515  0.0900
    1W        W46080  16.662  29.210   6.209  0.2071  0.0503 -0.3280
    1W        W46081  15.334   8.113   1.811 -0.0243  0.2904  0.0773
    1W        W46082  16.849   8.535   8.405 -0.0934  0.2282 -0.5204
    1W        W46083  29.726  22.807   9.110 -0.0110 -0.0017  0.0579
    1W        W46084   3.730  16.023   0.324 -0.2208  0.0464 -0.0445
    1W        W46085   1.245  20.399   1.424  0.1015 -0.0205  0.0581
    1W        W46086  17.432  28.302   0.364 -0.0553  0.1750 -0.2377
    1W        W46087   4.994   3.395   3.650 -0.1413 -0.0947 -0.1896
    1W        W46088  27.243   4.675   9.202  0.3066  0.0479  0.1094
    1W        W46089  21.951  22.561   5.965 -0.0072 -0.2481 -0.0103
    1W        W46090  20.925  19.691   8.478 -0.1624  0.1619 -0.1696
    1W        W46091  12.475  23.367   2.337 -0.1644 -0.3427  0.0909
    1W        W46092  25.044  28.774   8.794 -0.2142  0.0463 -0.0660
    1W        W46093  25.671   4.121   9.169  0.1098 -0.2582 -0.1583
    1W        W46094   1.887   6.193   8.799  0.0598  0.1721  0.3543
    1W        W46095  30.255  11.508   7.559 -0.0823  0.1216 -0.0480
    1W        W46096  19.969  21.853   0.696  0.0701 -0.3673 -0.1792
    1W        W46097   4.181  26.001   0.046 -0.0686 -0.0674  0.3243
    1W        W46098  28.034  12.171   7.272  0.0539 -0.2110  0.1429
    1W        W46099  21.297  17.902   0.077  0.1526 -0.0840  0.0738
    1W        W46100  24.818  10.518   8.667 -0.0456 -0.0850  0.0047
    1W        W46101  11.973  13.728   1.772  0.0578 -0.0014  0.0648
    1W        W46102  13.028   2.720   0.861  0.1468 -0.0919 -0.0986
    1W        W46103   8.895   2.040   9.209 -0.1028 -0.1321 -0.0607
    1W        W46104  22.161   5.476   7.219 -0.0505 -0.0424  0.0748
    1W        W46105   2.125  26.361   0.405  0.2179  0.0556  0.1748
    1W        W46106  27.042  10.354   0.951 -0.1040 -0.4322 -0.3740
    1W        W46107  24.600  26.264   7.428  0.2132  0.0169  0.1845
    1W        W46108  28.345   7.092   7.003 -0.0217  0.1603  0.1057
    1W        W46109  23.170  29.024   9.062  0.1312  0.0222  0.6938
    1W        W46110   5.911   5.472   8.197  0.0314 -0.0943 -0.1458
    1W        W46111  10.970  20.558   0.015  0.0573  0.1772  0.0272
    1W        W46112   2.899   3.652   2.527  0.1342 -0.0141 -0.2631
    1W        W46113  20.844  17.705   7.509 -0.0303  0.2176  0.0850
    1W        W46114   6.952  11.170   8.227  0.0532 -0.0771  0.4260
    1W        W46115  15.881  21.156   0.304  0.2242  0.0456  0.0371
    1W        W46116   2.345  27.364   1.037 -0.1035 -0.0632  0.1412
    1W        W46117  14.606  19.046   6.648 -0.0770  0.0992  0.1451
    1W        W46118   2.584   2.011   9.170 -0.1966  0.3440  0.0847
    1W        W46119   4.366  11.040   2.118 -0.0438  0.0028 -0.2668
    1W        W46120  10.492   7.850   0.266 -0.1836  0.2268 -0.0525
    1W        W46121   5.374  23.108   0.281 -0.2568 -0.0713  0.0663
    1W        W46122   1.687   3.320   2.650  0.1053 -0.1053 -0.0471
    1W        W46123  29.579  29.402   8.415 -0.1249 -0.5162  0.3801
    1W        W46124  23.726  25.965   7.272  0.0513 -0.1258  0.4213
    1W        W46125  10.875  27.587   1.887  0.1526 -0.0908  0.2312
    1W        W46126  28.632   6.684   0.679  0.1595  0.1266 -0.2456
    1W        W46127   6.235  11.604   2.192 -0.1187  0.1630 -0.0766
    1W        W46128   3.397  26.152   7.843 -0.2031 -0.3376 -0.0529
    1W        W46129  21.029  14.746   1.664 -0.2780 -0.0498  0.0808
    1W        W46130   9.010  20.109   1.192  0.0854 -0.2944  0.0248
    1W        W46131   3.401  19.309   1.153 -0.0251 -0.0773  0.0216
    1W        W46132   4.749  24.879   7.698 -0.0828  0.2535 -0.1470
    1W        W46133   6.250  19.171   7.350  0.0652 -0.3023  0.0856
    1W        W46134   7.961   5.089   0.948  0.2893  0.1887 -0.0731
    1W        W46135   9.241  11.886   1.798 -0.1386  0.0322  0.1288
    1W        W46136  19.559  18.797   2.114  0.1208  0.0223  0.3664
    1W        W46137  13.933   4.769   0.667 -0.0013  0.4401 -0.3000
    1W        W46138   5.162  13.912   7.777  0.1210 -0.0042 -0.1417
    1W        W46139  11.440  18.400   7.489  0.0207  0.1899  0.2547
    1W        W46140  25.765   6.897   8.454 -0.5297  0.0068  0.0935
    1W        W46141  24.285   2.962   8.455  0.1375 -0.1998 -0.0466
    1W        W46142  18.492   0.106   7.299  0.0634  0.0339  0.1765
    1W        W46143  11.804  16.456   6.984  0.0286 -0.2452 -0.0218
    1W        W46144  19.531   8.630   0.430  0.0623  0.1219  0.0515
    1W        W46145  22.643   5.305   8.344 -0.0005  0.2076 -0.1379
    1W        W46146   3.723  19.206   8.845  0.0559  0.2278  0.1188
    1W        W46147   8.103   4.000   1.090 -0.1037  0.1412 -0.1014
    1W        W46148  12.003  22.866   0.351  0.2143 -0.3355 -0.1486
    1W        W46149   9.174  27.777   0.655  0.0918  0.1090  0.2235
    1W        W46150  28.861  21.094   6.530  0.0686  0.1206 -0.3189
    1W        W46151  18.182   7.843   0.841 -0.1062  0.0283  0.1505
    1W        W46152  18.809  21.632   6.361  0.3095 -0.3692 -0.0750
    1W        W46153  11.557  28.717   2.483  0.0037  0.0163  0.1667
    1W        W46154  13.297  19.790   1.297 -0.0538  0.2648  0.0578
    1W        W46155  23.550   2.421   1.068 -0.2828 -0.0309  0.0308
    1W        W46156  15.847   8.744   8.287 -0.0656  0.4372 -0.0263
    1W        W46157  18.504  21.578   7.673  0.0702  0.2761 -0.1223
    1W        W46158   4.160  26.768   8.433 -0.4138 -0.0968 -0.1198
    1W        W46159   9.696  21.507   0.603 -0.0693  0.1432 -0.5388
    1W        W46160  25.316  20.522   1.157 -0.2103 -0.3376  0.0169
    1W        W46161  17.986  12.501   7.591 -0.0551 -0.0134  0.0579
    1W        W46162  19.647  22.418   5.905  0.1862 -0.2845 -0.2777
    1W        W46163  29.804   4.079   8.707 -0.2035  0.1712  0.1377
    1W        W46164  26.980  22.402   6.902 -0.2004 -0.1514  0.1072
    1W        W46165  30.308   9.819   2.024  0.0383  0.0150  0.1089
    1W        W46166   3.509  26.356   3.233  0.1097  0.0117 -0.0282
    1W        W46167  29.780   5.409   3.383 -0.0045  0.3956  0.3782
    1W        W46168  10.729   4.553   2.925 -0.0803  0.5561 -0.1254
    1W        W46169  29.466  24.100   8.824 -0.0281  0.0768  0.0258
    1W        W46170  13.108  22.861   8.814  0.0188 -0.2101  0.0224
    1W        W46171   4.346  17.111   1.039 -0.1160  0.1735  0.1534
    1W        W46172  14.203  25.555   7.358 -0.2610  0.0525  0.0167
    1W        W46173  13.511   9.260   2.255  0.1213  0.0829  0.0142
    1W        W46174  17.006  11.959   1.783  0.0554 -0.1476  0.1533
    1W        W46175  23.362  15.363   8.259  0.1592 -0.0937 -0.0379
    1W        W46176   6.208  17.651   8.637 -0.2438  0.0883  0.0304
    1W        W46177   6.252  28.132   9.084 -0.0001 -0.0092 -0.2585
    1W        W46178   7.850  24.001   8.688 -0.2123 -0.2374 -0.0874
    1W        W46179  14.245  12.917   7.531 -0.1098 -0.0251  0.0037
    1W        W46180  27.270  23.804   8.931  0.0690  0.0663  0.0498
    1W        W46181   0.829  18.141   0.546 -0.4174 -0.0187 -0.0183
    1W        W46182   7.730  27.015   2.616  0.3530 -0.0137  0.0194
    1W        W46183  18.490   7.537   2.486 -0.0760 -0.2678 -0.0201
    1W        W46184  14.736   6.272   1.601  0.0221  0.1369  0.0022
    1W        W46185  14.515  10.546   8.785 -0.2155 -0.0889 -0.1793
    1W        W46186   4.423  30.278   0.008 -0.0519  0.0392 -0.2752
    1W        W46187  29.908  20.670   1.486 -0.1489  0.1640 -0.1934
    1W        W46188  20.698  11.743   7.012 -0.1035  0.1604 -0.3029
    1W        W46189  17.501  14.546   6.448  0.0582 -0.0981 -0.2092
    1W        W46190  19.641  15.547   0.577  0.2274  0.0804  0.0118
    1W        W46191  10.725  15.530   7.579 -0.2191 -0.1257 -0.0428
    1W        W46192  20.826  13.473   6.050 -0.0631 -0.0167 -0.0546
    1W        W46193   0.308  18.447   8.999  0.4029 -0.0943 -0.0780
    1W        W46194   3.129  12.867   2.200 -0.1423 -0.1417  0.1271
    1W        W46195  10.586  29.373   8.186 -0.4080 -0.1180  0.2500
    1W        W46196  11.164  22.680   7.765 -0.4787  0.0775  0.1880
    1W        W46197   6.344  19.737   6.813 -0.1175  0.1883  0.0024
    1W        W46198  25.780  20.426   0.452  0.0117 -0.2557 -0.1084
    1W        W46199  21.834  21.763   5.705 -0.0744 -0.1357  0.2753
    1W        W46200  13.317   4.038   8.214 -0.3262  0.0483  0.1733
    1W        W46201  28.643  11.429   0.408  0.1589 -0.0082  0.1199
    1W        W46202  24.173  16.479   9.000 -0.0617  0.1110  0.3753
    1W        W46203  28.762  25.494   7.465 -0.1039  0.0201 -0.0911
    1W        W46204  20.424   3.427   7.188  0.0755 -0.2764 -0.1569
    1W        W46205  17.225   1.716   1.780 -0.0295  0.1082  0.0320
    1W        W46206  12.694  26.294   7.103  0.0873 -0.2158 -0.2436
    1W        W46207  28.177  27.134   7.789  0.0722  0.2782  0.0750
    1W        W46208   2.716   4.805   1.999  0.1933 -0.2733 -0.0728
    1W        W46209  21.448   5.506   1.947  0.1868  0.0845  0.0153
    1W        W46210  21.724  21.681   0.665  0.3354 -0.2803  0.0994
    1W        W46211  24.674  16.677   0.812 -0.0947 -0.2349 -0.1590
    1W        W46212  28.345   6.168   2.104 -0.3331  0.1835  0.1097
    1W        W46213   0.515   3.218   2.741 -0.0970 -0.1261 -0.5268
    1W        W46214  13.127  27.928   3.116 -0.0893  0.0171  0.0038
    1W        W46215  28.975  11.511   2.485  0.2291  0.0506 -0.1011
    1W        W46216  13.931   6.131   2.910 -0.1943  0.1074  0.2009
    1W        W46217  28.568  22.750   6.502 -0.3572 -0.1006  0.1301
    1W        W46218  14.418  29.711   8.456 -0.0312 -0.1219 -0.1043
    1W        W46219   6.105  23.786   6.426  0.4329  0.3761 -0.0031
    1W        W46220  28.234  30.164   3.518 -0.0058  0.0125  0.1243
    1W        W46221   0.225   2.086   8.914 -0.1597 -0.1157 -0.0780
    1W        W46222  21.185  24.503   5.951 -0.0497  0.1103 -0.0388
    1W        W46223  15.708  14.688   2.150 -0.0068 -0.0880 -0.0466
    1W        W46224  17.423  17.767   9.000  0.0533  0.1100  0.0177
    1W        W46225  28.561   5.294   7.447  0.1906 -0.0782 -0.2566
    1W        W46226  25.791  11.180   6.770 -0.3875 -0.0449  0.1637
    1W        W46227  22.897  27.027   7.030 -0.0025  0.2338  0.1491
    1W        W46228  29.718   6.570   1.039  0.0568  0.0504  0.3324
    1W        W46229   7.860  19.512   2.246 -0.1892 -0.0087  0.1372
    1W        W46230   2.278   1.599   3.337 -0.0614  0.1785  0.4936
    1W        W46231  27.432   9.151   0.044  0.2425 -0.0473 -0.0658
    1W        W46232  21.846  16.768   5.753  0.2610  0.0941 -0.0426
    1W        W46233  11.583  11.416   1.314  0.1598  0.0278  0.3836
    1W        W46234   8.658  21.027   7.725  0.3709  0.2437  0.3083
    1W        W46235  17.569  12.217   8.753  0.1638  0.3589 -0.0040
    1W        W46236  13.849  20.995   2.510  0.0723 -0.0284  0.0695
    1W        W46237  11.459  18.810   7.044  0.1885  0.2450  0.2378
    1W        W46238  18.213  13.359   7.877 -0.0003 -0.2305  0.3137
    1W        W46239  30.191  19.326   7.026  0.1354 -0.0175 -0.0005
    1W        W46240  15.915   6.634   2.108 -0.0546 -0.0650  0.1441
    1W        W46241   3.085   8.082   2.112 -0.2263  0.1499 -0.3266
    1W        W46242   5.263  21.950   8.357  0.0162  0.0242  0.0807
    1W        W46243   5.400  23.174   7.240 -0.1114 -0.0227  0.0013
    1W        W46244   3.349   6.378   2.286  0.0925  0.3782  0.0655
    1W        W46245  22.507   0.723   6.673  0.1176  0.1452 -0.0088
    1W        W46246   7.873  14.979   6.392 -0.0275  0.2725  0.1267
    1W        W46247  17.431  10.073   7.580 -0.3790  0.2661 -0.0433
    1W        W46248  17.505   5.235   6.663 -0.0217  0.1262 -0.0392
    1W        W46249  16.134  14.254   6.760 -0.0593  0.0048  0.1682
    1W        W46250  12.491  15.453   1.796  0.0018  0.2651  0.3538
    1W        W46251  14.981  11.920   3.283 -0.1612  0.1747  0.1100
    1W        W46252  15.930   6.013   0.257 -0.0503 -0.0956  0.4062
    1W        W46253  20.113   7.091   1.935  0.0231 -0.0924 -0.3432
    1W        W46254  23.442  19.896   1.721  0.0060 -0.0374  0.0744
    1W        W46255   5.750   5.747   3.044  0.2490  0.1027  0.1947
    1W        W46256   0.316  10.533   9.085 -0.0491 -0.1807  0.1302
    1W        W46257  13.598  19.709   7.160 -0.2336  0.1129 -0.1470
    1W        W46258   3.872  22.026   2.237 -0.1289 -0.1165  0.0301
    1W        W46259   4.420  29.838   8.854  0.2908  0.0715 -0.1477
    1W        W46260  15.361  13.464   7.034 -0.0848 -0.2176 -0.0946
    1W        W46261  20.448  10.780   1.693  0.2160 -0.0677 -0.0744
    1W        W46262  23.402  17.235   8.056  0.2715  0.2804 -0.0354
    1W        W46263  18.697   9.840   6.898  0.0588 -0.3368 -0.1120
    1W        W46264  18.931   4.365   7.955  0.1833 -0.0700 -0.2092
    1W        W46265  12.727  22.532   6.768 -0.1985  0.3502  0.1584
    1W        W46266  16.017  24.621   6.697  0.0923 -0.2271  0.5271
    1W        W46267  22.229   4.499   8.199 -0.1188 -0.0014  0.1507
    1W        W46268   7.369  19.997   1.908  0.0730 -0.2095  0.3151
    1W        W46269  21.965  18.056   7.718  0.0806 -0.1303 -0.1665
    1W        W46270   0.987  18.286   9.111 -0.3424  0.0126 -0.1368
    1W        W46271  22.263   3.913   2.735 -0.2060  0.0074  0.0897
    1W        W46272  16.191  28.897   7.879  0.1170 -0.0655  0.0192
    1W        W46273   0.769  29.933   2.599  0.2938 -0.0359 -0.1170
    1W        W46274  28.400  13.101   7.323  0.1034 -0.1008 -0.0280
    1W        W46275   1.376   2.966   1.460 -0.3298 -0.2238 -0.2652
    1W        W46276   4.003  24.677   2.145 -0.0758 -0.1540 -0.1254
    1W        W46277  20.244   5.955   1.576 -0.0804  0.1884  0.0912
    1W        W46278   0.678   4.946   8.860  0.0245  0.1502  0.2093
    1W        W46279  15.616  18.281   1.956 -0.5720  0.1889  0.1252
    1W        W46280   0.544   7.065   1.082 -0.0857 -0.1593 -0.2214
    1W        W46281  23.985   2.038   2.763  0.2533  0.1153  0.0671
    1W        W46282  18.774  22.923   7.668 -0.3650 -0.2613  0.2711
    1W        W46283  13.295  21.401   1.666 -0.1659 -0.0980  0.0763
    1W        W46284  13.524  16.882   6.170  0.1388  0.2033 -0.2831
    1W        W46285  24.317   6.887   2.015 -0.0830 -0.0592  0.0023
    1W        W46286  15.698  11.844   7.613  0.1454 -0.2860  0.4356
    1W        W46287  12.189   2.227   6.222  0.0466  0.0814 -0.2077
    1W        W46288  12.624  29.944   0.896 -0.2101 -0.0994 -0.0104
    1W        W46289  19.926  15.953   0.499  0.2163 -0.1206 -0.1686
    1W        W46290  17.714   9.646   8.425  0.1630 -0.1135 -0.4528
    1W        W46291  30.327  19.841   1.111  0.0365 -0.1390 -0.1617
    1W        W46292  12.140   0.894   1.227 -0.1270  0.2172  0.1044
    1W        W46293  16.940  18.432   8.761  0.3304  0.0947  0.0919
    1W        W46294  12.278  22.531   2.083 -0.2339  0.1232 -0.0545
    1W        W46295  21.004  21.013   6.564  0.0678 -0.0109  0.0564
    1W        W46296   0.477   1.072   0.005 -0.0489 -0.2128 -0.2287
    1W        W46297   7.896   6.749   1.078 -0.0387  0.2059 -0.2608
    1W        W46298  25.343  11.575   7.865  0.0831 -0.1060 -0.1108
    1W        W46299  28.036  18.741   0.820  0.1261 -0.1500  0.1448
    1W        W46300   2.280  24.257   2.129  0.2221  0.0874  0.1076
    1W        W46301  12.896   5.955   1.820 -0.1805 -0.2271  0.4583
    1W        W46302  12.457  10.357   2.093 -0.0367  0.0356 -0.2732
    1W        W46303   0.701   2.482   8.927  0.1550 -0.2096 -0.3566
    1W        W46304  10.465   2.579   0.044 -0.1197 -0.0120  0.3260
    1W        W46305  21.331  27.074   2.697 -0.1158  0.0472 -0.3490
    1W        W46306  24.111  14.686   9.045 -0.0849 -0.3008 -0.1790
    1W        W46307  17.832  10.225   8.600 -0.1866 -0.0525 -0.0332
    1W        W46308  26.366   5.275   3.049  0.1029  0.1383  0.1913
    1W        W46309  28.870   6.537   1.069  0.0410 -0.4588 -0.2717
    1W        W46310   8.677  22.496   2.229 -0.2721 -0.2739  0.0462
    1W        W46311  11.779  26.254   5.807  0.1050 -0.1508 -0.0340
    1W        W46312  27.308  29.743   0.738 -0.3240 -0.0311 -0.0291
    1W        W46313  17.518  22.284   1.821 -0.4345 -0.1474 -0.2357
    1W        W46314   0.331   2.557   8.196 -0.3278 -0.2153 -0.4648
    1W        W46315   7.772  23.760   1.723 -0.0688 -0.1919 -0.3143
    1W        W46316  23.997  25.312   6.344  0.2983  0.5252  0.0453
    1W        W46317  11.000  28.821   2.489 -0.1178 -0.1023  0.0706
    1W        W46318   5.201  14.638   8.767 -0.1372  0.0735  0.0501
    1W        W46319   2.590   2.500   0.953  0.0516  0.2319 -0.1025
    1W        W46320  13.372  23.522   6.104  0.1901 -0.0585 -0.0837
    1W        W46321   3.248  22.967   8.890  0.0685 -0.0437  0.3009
    1W        W46322  19.319  13.040   2.830  0.1510 -0.0032 -0.1145
    1W        W46323   8.456   7.336   7.266 -0.1273 -0.1364 -0.1025
    1W        W46324  20.582   4.279   9.121 -0.1763 -0.0233 -0.1676
    1W        W46325  18.980   6.998   5.903  0.1937  0.0446 -0.1844
    1W        W46326   4.381  13.192   6.899 -0.3090  0.0379 -0.2632
    1W        W46327  18.859   3.235   8.538 -0.0942 -0.5404 -0.1675
    1W        W46328   5.866   3.361   4.043 -0.0088  0.2088  0.4490
    1W        W46329   6.494  14.453   0.096 -0.1201  0.1918 -0.1899
    1W        W46330  25.893  10.823   2.229  0.1993 -0.1127  0.1883
    1W        W46331  11.836   5.188   6.792  0.0714 -0.2434 -0.1901
    1W        W46332   6.044  18.815   0.794 -0.2483 -0.1884 -0.0343
    1W        W46333  14.502  15.938   0.721  0.0855  0.0059 -0.2282
    1W        W46334  24.137   9.314   6.741  0.0659  0.2559  0.1749
    1W        W46335  12.315   9.235   2.286 -0.1139  0.0447 -0.1093
    1W        W46336  18.792   6.889   1.565 -0.2069  0.6099  0.0469
    1W        W46337   1.256  26.983   2.240 -0.1704  0.1784 -0.1394
    1W        W46338  27.550   3.493   2.602  0.0105  0.0471  0.0674
    1W        W46339  14.655  16.894   6.771  0.1932 -0.2519  0.1133
    1W        W46340   1.530  23.819   7.787  0.0938  0.0572  0.1093
    1W        W46341  10.346  28.040   7.653  0.4143  0.0824 -0.0481
    1W        W46342  27.909  20.030   9.031  0.3520 -0.0745 -0.0340
    1W        W46343  14.157  11.942   0.502 -0.0918 -0.1485 -0.0151
    1W        W46344   1.704  26.819   8.372  0.1230 -0.1173 -0.0234
    1W        W46345   4.951  27.314   8.721 -0.0262 -0.2765  0.1578
    1W        W46346  21.751  23.740   2.117  0.0739 -0.2818  0.2407
    1W        W46347  19.636   5.558   8.622 -0.2018  0.1637  0.2128
    1W        W46348   5.571  12.274   8.887  0.0179  0.1419 -0.0861
    1W        W46349   2.168  15.099   0.744 -0.2645 -0.0052 -0.1090
    1W        W46350  14.069  23.447   7.574 -0.0727  0.3843  0.1210
    1W        W46351  10.970  29.220   2.182  0.1128 -0.1231 -0.0602
    1W        W46352  18.269  17.323   7.000  0.1664  0.2505 -0.1083
    1W        W46353   3.663  17.878   7.239  0.0127  0.2500  0.1497
    1W        W46354   0.420   6.258   7.341  0.0017 -0.1723  0.1530
    1W        W46355  11.466  23.236   0.452 -0.0334  0.1970 -0.2084
    1W        W46356  25.421  25.256   1.185  0.1333  0.0456 -0.0028
    1W        W46357  26.196   7.577   2.384  0.2794  0.0379  0.2693
    1W        W46358  21.264  17.357   7.682 -0.2590 -0.1754  0.1218
    1W        W46359  21.850  11.795   6.276 -0.2846 -0.0624 -0.1885
    1W        W46360  10.646  18.360   8.824 -0.2103 -0.1529 -0.1185
    1W        W46361  29.236  28.564   2.596 -0.0113 -0.4226  0.0643
    1W        W46362  24.112  27.532   8.769  0.0426  0.3148 -0.0920
    1W        W46363  15.810  17.483   1.040  0.2257 -0.0254  0.0913
    1W        W46364   4.380  28.047   3.320 -0.1378  0.0144  0.2749
    1W        W46365  19.959   0.448   2.078 -0.1887 -0.2079 -0.1192
    1W        W46366  15.199  27.542   1.951 -0.2510 -0.0800  0.0951
    1W        W46367  23.877  18.795   7.892 -0.0168 -0.3805  0.3336
    1W        W46368  15.877   1.150   8.915 -0.2828 -0.0032 -0.1451
    1W        W46369  16.625   1.172   1.672 -0.1649 -0.3475 -0.3581
    1W        W46370  20.946  12.651   5.695 -0.2860  0.1231 -0.0924
    1W        W46371   5.205  16.664   1.398  0.1757 -0.0355 -0.0853
    1W        W46372   5.703  26.772   6.904  0.1675  0.1077  0.0100
    1W        W46373  21.102  12.622   6.196 -0.1364  0.0434  0.3860
    1W        W46374  29.457  13.952   1.971  0.0749  0.1499 -0.1220
    1W        W46375  18.973   1.560   9.270  0.0067  0.1788 -0.0466
    1W        W46376  14.556  13.838   2.360  0.0736 -0.2008  0.0895
    1W        W46377   7.276  12.333   7.916 -0.0734 -0.0678  0.0218
    1W        W46378  17.010  17.887   0.344  0.2035  0.0492  0.0298
    1W        W46379   8.189  11.836   2.189  0.0650 -0.1598  0.2684
    1W        W46380   6.119   2.237   0.168 -0.3033  0.1550  0.2029
    1W        W46381  17.778  17.865   1.642 -0.0641  0.0445 -0.2995
    1W        W46382   2.640  17.129   7.001 -0.3042 -0.0890  0.3025
    1W        W46383  12.122   6.823   6.509  0.2235  0.1265 -0.4946
    1W        W46384   1.013  15.414   8.809  0.4185 -0.0180 -0.2432
    1W        W46385   0.390  17.945   8.979 -0.1427  0.2342  0.2329
    1W        W46386  22.758   4.650   2.859  0.0257  0.1082 -0.0588
    1W        W46387   2.871  28.251   8.874 -0.1158 -0.0795 -0.3962
    1W        W46388   0.583  29.953   3.114 -0.0425  0.1352  0.0320
    1W        W46389  25.791  29.446   2.812  0.1139 -0.3428 -0.1557
    1W        W46390   1.052  21.622   8.415  0.0119  0.1524  0.1777
    1W        W46391   3.506  11.582   7.653  0.0580  0.0560  0.2781
    1W        W46392  16.892   2.149   1.707  0.0146  0.2456  0.1518
    1W        W46393  25.532  14.287   6.663  0.1795 -0.0814  0.2430
    1W        W46394  13.138  22.348   8.679 -0.0840 -0.0384  0.2183
    1W        W46395  29.482  24.092   0.084 -0.0356  0.3677 -0.0143
    1W        W46396  29.201  18.967   1.536 -0.0527  0.0248 -0.0467
    1W        W46397  18.598  24.082   6.243 -0.0992  0.0594 -0.2843
    1W        W46398  21.939   2.478   2.170 -0.3857  0.2122 -0.0801
    1W        W46399  14.226   4.106   8.141  0.1496  0.0330 -0.1324
    1W        W46400  18.237  21.684   1.495 -0.2677 -0.1134  0.1687
    1W        W46401   6.178  29.710   2.228  0.1109  0.1025  0.1439
    1W        W46402  16.340  27.990   8.901 -0.1273  0.4540 -0.1891
    1W        W46403  13.614   7.249   0.531  0.1266  0.1921  0.2548
    1W        W46404   5.706  28.252   8.990  0.0464 -0.1280  0.1242
    1W        W46405   5.193  30.262   8.220 -0.1438  0.0616 -0.0398
    1W        W46406  24.584  13.851   1.865 -0.0615 -0.1726  0.4532
    1W        W46407   5.476  25.567   8.493 -0.2934  0.1494  0.0129
    1W        W46408  24.634  17.983   1.171  0.1461 -0.0623 -0.0015
    1W        W46409   8.458  19.649   1.479  0.0705 -0.0568 -0.0084
    1W        W46410  28.558  30.287   8.840  0.0529 -0.0700  0.1336
    1W        W46411  15.510  13.649   7.451 -0.2878 -0.0950 -0.1314
    1W        W46412  14.599  16.019   2.673 -0.0710  0.2015 -0.1186
    1W        W46413  15.746   5.800   7.979 -0.0586  0.1687 -0.0914
    1W        W46414  28.460  11.605   8.492  0.1451 -0.3487 -0.2107
    1W        W46415  18.638  10.359   1.871 -0.1085  0.1288  0.0239
    1W        W46416   5.050   5.790   1.652 -0.0731  0.2597  0.3119
    1W        W46417  11.727  21.909   1.872 -0.1351 -0.0871  0.0065
    1W        W46418  12.984   7.492   7.551  0.2563 -0.0576  0.1449
    1W        W46419   3.311  23.254   0.656  0.0875 -0.0635 -0.0057
    1W        W46420  24.993  28.625   6.956 -0.0329  0.0065  0.1761
    1W        W46421  23.862  11.168   6.114 -0.0122 -0.1098  0.0911
    1W        W46422  26.895  24.673   7.965 -0.2874 -0.0322 -0.0929
    1W        W46423  26.433   9.183   6.628 -0.0359 -0.1034  0.2492
    1W        W46424  27.043  29.841   1.949 -0.0830  0.1673  0.2813
    1W        W46425  17.812  21.845   1.258 -0.0412 -0.0380  0.1037
    1W        W46426  14.779  22.775   7.436 -0.0232  0.0120  0.0439
    1W        W46427   7.067  11.295   8.667 -0.1542  0.1924 -0.3122
    1W        W46428  24.106  29.202   2.079  0.0762  0.0991  0.1032
    1W        W46429  14.693   1.155   8.129 -0.5751  0.0478  0.1715
    1W        W46430  24.118  19.027   1.846 -0.2316  0.0420  0.0270
    1W        W46431   7.104   1.761   9.085 -0.1310  0.2562 -0.2609
    1W        W46432  20.075  14.128   0.985 -0.4058  0.0913 -0.0030
    1W        W46433   4.586   1.928   0.690 -0.0820  0.4343  0.2144
    1W        W46434  17.088  21.167   5.904 -0.0735  0.2158 -0.0197
    1W        W46435  22.902   1.953   6.640 -0.0362  0.2106 -0.1026
    1W        W46436  16.089  11.955   7.873 -0.1027 -0.0080  0.1276
    1W        W46437   6.497  28.995   8.421 -0.0875 -0.0630  0.0631
    1W        W46438  10.510  28.430   7.317 -0.0677  0.0438 -0.1058
    1W        W46439  12.629  18.959   8.899  0.0229 -0.1897  0.0044
    1W        W46440   4.833   8.133   8.955  0.0832  0.0326 -0.2219
    1W        W46441  13.781   9.750   8.781 -0.0829 -0.1982 -0.2413
    1W        W46442   2.255  24.338   0.445 -0.3065  0.1780 -0.0081
    1W        W46443  15.412   7.485   8.368 -0.2322 -0.5181 -0.0958
    1W        W46444  25.023  12.011   6.098  0.1983  0.0903  0.3412
    1W        W46445  25.372  19.312   0.508 -0.3293  0.0795 -0.0142
    1W        W46446   9.967  17.655   1.871 -0.3742  0.1006  0.0370
    1W        W46447   7.422   9.327   1.766 -0.1473  0.1056 -0.1005
    1W        W46448   3.835  13.677   8.504 -0.1162  0.1096  0.0700
    1W        W46449  11.636   4.202   2.224 -0.1097  0.1032 -0.1419
    1W        W46450  24.463  21.302   0.397  0.1329 -0.1096  0.0044
    1W        W46451  27.309   3.823   0.053 -0.1006  0.2491  0.4528
    1W        W46452  10.226  21.350   6.424  0.1716  0.2201  0.1158
    1W        W46453  16.372  29.222   8.965 -0.0246  0.1114  0.0601
    1W        W46454   6.608   3.211   9.067 -0.0355  0.3212  0.0010
    1W        W46455  22.735  27.270   8.960 -0.3253  0.0335 -0.0398
    1W        W46456  16.158  12.849   7.671  0.3333 -0.4254 -0.0941
    1W        W46457  27.839  17.855   7.907  0.0664 -0.3346  0.1760
    1W        W46458   5.420  26.109   8.136  0.3057 -0.2885 -0.2228
    1W        W46459   6.276  13.337   8.184 -0.2545  0.1293  0.1029
    1W        W46460  17.324  25.077   6.737 -0.1069 -0.2080  0.2067
    1W        W46461  13.110  23.752   7.938 -0.2177 -0.0671 -0.2905
    1W        W46462   9.956   0.848   1.586  0.0898  0.0802 -0.1815
    1W        W46463  17.854   9.168   6.624  0.0193  0.1987 -0.1377
    1W        W46464   0.397   8.825   7.289 -0.0601  0.3676 -0.0594
    1W        W46465  16.729  25.008   8.785  0.1985 -0.0200 -0.2029
    1W        W46466  27.178  14.885   8.988 -0.3315  0.1325 -0.0316
    1W        W46467   5.897  12.456   8.017 -0.0479  0.1775  0.0589
    1W        W46468   6.637   6.278   2.016  0.0534 -0.1609 -0.0055
    1W        W46469  27.214  12.881   8.284  0.0455  0.2134  0.2698
    1W        W46470  23.654  26.502   0.238  0.0888 -0.1142 -0.0006
    1W        W46471  20.104  27.607   1.171 -0.0010  0.3268  0.1834
    1W        W46472  13.248  22.297   2.015  0.0413  0.1274 -0.0174
    1W        W46473  13.117  22.273   6.281 -0.0678  0.3757 -0.2344
    1W        W46474  11.295  25.275   6.473  0.1996 -0.0728 -0.0357
    1W        W46475  13.137  27.788   2.541  0.0322 -0.1710  0.1576
    1W        W46476  25.329  20.928   6.561  0.0763  0.0946 -0.0772
    1W        W46477  21.338  12.983   8.134  0.2390  0.1716  0.0406
    1W        W46478  14.691  23.894   1.981 -0.0694 -0.0728 -0.1164
    1W        W46479   4.739  29.307   1.893  0.0093  0.0459  0.0267
    1W        W46480   2.419  10.561   6.823 -0.0057 -0.1240  0.1229
    1W        W46481   2.231   5.040   7.902  0.0568  0.1737 -0.3461
    1W        W46482  26.851   5.016   7.094 -0.0583 -0.0350  0.1418
    1W        W46483   4.145  18.534   6.202  0.0317 -0.0648  0.2106
    1W        W46484  10.307  19.470   6.475  0.6116  0.0311  0.0102
    1W        W46485  22.753  29.508   0.441  0.2535 -0.0701  0.1565
    1W        W46486  29.417  28.820   7.126 -0.3289  0.4029 -0.1226
    1W        W46487   6.597  27.196   6.180  0.1561  0.0767 -0.0491
    1W        W46488  27.995   0.935   1.693 -0.0383  0.1003 -0.0302
    1W        W46489  22.056  14.937   8.415  0.1055 -0.0288 -0.1622
    1W        W46490   6.764  23.115   8.216 -0.3008  0.0536 -0.0172
    1W        W46491   2.571  10.722   0.856 -0.1231 -0.0505  0.1785
    1W        W46492   3.999  25.402   8.331  0.0153 -0.1478 -0.0956
    1W        W46493  12.317  11.112   0.126 -0.0209  0.1423 -0.0663
    1W        W46494   0.300  13.187   8.387 -0.1530 -0.2105 -0.1482
    1W        W46495  26.349  21.302   8.581  0.2900 -0.0578  0.1829
    1W        W46496  18.694  27.300   1.960  0.1969 -0.0086 -0.1533
    1W        W46497  14.403  11.322   0.711 -0.1742  0.0317  0.2982
    1W        W46498  25.391  24.507   0.773 -0.1702  0.0277  0.1120
    1W        W46499  25.532   5.895   6.705 -0.1044  0.0625  0.2761
    1W        W46500  29.099  20.228   6.495 -0.0827 -0.0860  0.0322
    1W        W46501  13.396   1.463   2.712 -0.0629  0.1362  0.0296
    1W        W46502  19.682   6.051   6.483 -0.1308 -0.0429  0.0464
    1W        W46503  10.922   0.550   3.332 -0.0943  0.1871 -0.3823
    1W        W46504   9.125   2.030   6.464 -0.1817 -0.2295 -0.1218
    1W        W46505   7.966   2.595   7.663  0.0574  0.1251  0.0189
    1W        W46506  14.953  18.787   6.434 -0.1244  0.0299  0.0671
    1W        W46507   2.680  26.061   1.915 -0.3344 -0.2066 -0.0332
    1W        W46508   2.099  20.426   1.658 -0.0303 -0.2370  0.0268
    1W        W46509   1.747   0.209   8.214 -0.2554 -0.2025  0.0254
    1W        W46510  10.905  17.165   8.017 -0.0122 -0.4068 -0.2711
    1W        W46511  11.063   7.986   7.322 -0.0344  0.2073 -0.6521
    1W        W46512  17.285  13.441   7.204 -0.0469  0.0917  0.1435
    1W        W46513   7.552  25.783   7.725 -0.4296  0.2695  0.0771
    1W        W46514   6.739  25.761   0.016  0.1175 -0.0302  0.2225
    1W        W46515  27.453  20.080   8.888  0.1076  0.2554 -0.1532
    1W        W46516  17.208  16.950   0.186 -0.2329 -0.1258  0.2492
    1W        W46517  23.917   6.121   7.926  0.2657 -0.1066  0.0312
    1W        W46518  22.874   9.854   0.190  0.0177 -0.1397  0.1480
    1W        W46519  27.574  24.256   2.158 -0.0688  0.0429  0.0410
    1W        W46520   5.445   7.072   7.239 -0.1712  0.0045  0.0419
    1W        W46521   3.387  30.335   2.382  0.0311 -0.0471 -0.0633
    1W        W46522  18.538  23.123   8.024 -0.0345 -0.0045 -0.1194
    1W        W46523  19.289  26.316   7.365  0.1118  0.1465 -0.2605
    1W        W46524  23.629  14.248   0.590 -0.0904  0.0581 -0.0854
    1W        W46525  22.212   4.768   1.463 -0.2530  0.0513  0.2538
    1W        W46526  29.101   3.459   3.706  0.1089 -0.0783 -0.2508
    1W        W46527  20.997  15.695   0.020 -0.0081 -0.0498  0.1950
    1W        W46528   2.985   3.401   6.787  0.0091  0.0075  0.0770
    1W        W46529  29.661   1.986   7.705 -0.5645  0.1973 -0.0041
    1W        W46530  12.824   6.037   7.172 -0.1860 -0.0090 -0.1509
    1W        W46531  20.478  21.004   0.632 -0.0413  0.1599 -0.0386
    1W        W46532  15.420  26.547   3.112 -0.1152  0.0214 -0.3695
    1W        W46533   9.714   3.469   1.609 -0.0345  0.0843  0.0108
    1W        W46534  18.949  22.725   2.288  0.0414  0.4437  0.1093
    1W        W46535  22.801   1.495   1.998  0.0424 -0.2884 -0.1412
    1W        W46536  21.576  28.929   7.994 -0.1686  0.0414 -0.4107
    1W        W46537   3.243  18.648   0.479 -0.0513 -0.1445 -0.1989
    1W        W46538   0.136  26.381   8.252 -0.2765 -0.0145 -0.0787
    1W        W46539  20.463  14.008   0.750 -0.1467  0.0538  0.0196
    1W        W46540   9.546  23.260   7.083 -0.0417  0.1481 -0.2589
    1W        W46541   6.973  28.747   0.752 -0.0611  0.2216  0.0330
    1W        W46542   1.425  25.337   8.935  0.1944  0.1071  0.2000
    1W        W46543   1.100  27.865   2.408 -0.0671  0.2435  0.1721
    1W        W46544   0.856  23.533   1.990 -0.1440 -0.2187  0.0583
    1W        W46545  12.370  16.662   2.549 -0.2594 -0.1848  0.4227
    1W        W46546  22.695  29.705   9.209  0.2366 -0.0473  0.0575
    1W        W46547  18.780  17.380   2.234 -0.1164 -0.4601 -0.3982
    1W        W46548  22.187  29.606   9.150  0.3501  0.0737 -0.0088
    1W        W46549   7.472  29.065   8.118 -0.1942 -0.0263  0.0361
    1W        W46550   3.315  14.105   7.445 -0.3422  0.1777 -0.1795
    1W        W46551   5.123   6.688   2.062  0.2000 -0.1052  0.1451
    1W        W46552  14.022  24.257   2.805  0.0879  0.0077  0.2159
    1W        W46553   9.350   9.519   7.027 -0.0109  0.5456  0.1267
    1W        W46554   4.741  13.693   0.550  0.3000  0.2501 -0.4796
    1W        W46555  13.713   0.848   3.390  0.1909  0.1154  0.2048
    1W        W46556   2.344  25.767   2.103 -0.0588  0.1707  0.0435
    1W        W46557  12.503   8.277   7.218 -0.0925  0.0351  0.2820
    1W        W46558  29.826  12.274   9.081  0.0908  0.0823 -0.1635
    1W        W46559   0.748   1.919   7.278  0.1520 -0.2961 -0.0320
    1W        W46560   3.731  29.967   2.301 -0.3583  0.0361  0.1111
    1W        W46561  25.214   5.300   7.991  0.1083  0.2810 -0.1123
    1W        W46562   6.602  18.179   7.024  0.1288 -0.1198  0.1448
    1W        W46563  28.682  15.236   6.973 -0.1544  0.0901 -0.2198
    1W        W46564  26.181  28.770   8.269 -0.0957  0.1362  0.4198
    1W        W46565  14.405  25.367   2.131  0.0142 -0.0465 -0.0075
    1W        W46566  27.410   5.210   2.118  0.1398 -0.1182  0.3107
    1W        W46567  15.862  13.803   3.045  0.0521  0.0047 -0.0874
    1W        W46568   3.752  22.918   0.746  0.2685 -0.1822 -0.3615
    1W        W46569   4.518  15.620   7.758 -0.4406 -0.1133  0.1301
    1W        W46570  10.970  25.090   8.675 -0.2249 -0.1823  0.0509
    1W        W46571  21.975   8.927   0.899  0.2015 -0.0804 -0.0748
    1W        W46572  12.029  16.442   1.840  0.2041  0.0294 -0.0599
    1W        W46573   4.573   7.686   7.691  0.1962  0.0538  0.0577
    1W        W46574   2.893  14.726   0.403  0.1405  0.0503  0.1222
    1W        W46575   8.416  13.170   6.735 -0.0649 -0.2140 -0.0365
    1W        W46576  13.856  20.457   7.691  0.1086 -0.0357  0.1246
    1W        W46577  11.625   4.315   2.807  0.2496 -0.0053  0.0677
    1W        W46578  16.584   2.091   2.203  0.0807  0.1294  0.1105
    1W        W46579  20.499  27.329   2.192  0.0188  0.0183  0.1546
    1W        W46580   3.510  27.500   1.145 -0.0847  0.1743 -0.2061
    1W        W46581   8.630  26.351   6.847  0.0688  0.0312  0.2161
    1W        W46582  17.883  29.426   0.437 -0.1907 -0.0466 -0.2374
    1W        W46583  30.126  26.810   3.927  0.2943 -0.1642  0.0583
    1W        W46584  27.082   0.493   8.570  0.0724  0.2037 -0.0193
    1W        W46585   6.303   7.244   8.883 -0.1946 -0.1184 -0.0958
    1W        W46586  25.530   8.199   6.758 -0.0915 -0.2554 -0.1182
    1W        W46587  20.829   7.702   2.526  0.0022  0.2506  0.1175
    1W        W46588   4.265  20.116   6.977  0.1586 -0.0956 -0.1187
    1W        W46589   3.592  21.216   8.277  0.0722 -0.0883  0.1154
    1W        W46590  19.047  26.616   2.683 -0.0977  0.1768 -0.2812
    1W        W46591   4.092  18.440   8.391 -0.0163 -0.0300  0.0806
    1W        W46592  21.404  12.858   8.975 -0.1176  0.0700  0.0786
    1W        W46593   0.553  25.899   9.035  0.0804 -0.1116 -0.0636
    1W        W46594  18.398  10.761   3.102  0.2518 -0.0868 -0.0252
    1W        W46595  22.382  28.100   2.772  0.0152 -0.1979  0.2822
    1W        W46596  14.620   3.416   1.327  0.0774 -0.1623 -0.1480
    1W        W46597  18.707   4.137   7.130 -0.2921  0.2937  0.2020
    1W        W46598  28.823   6.945   1.752 -0.0287  0.1408  0.3648
    1W        W46599   6.853  23.931   8.369 -0.1640 -0.0328  0.1702
    1W        W46600  10.897  18.604   0.716  0.0947 -0.1792  0.2092
    1W        W46601  20.478  13.204   7.664  0.0008 -0.1505 -0.1554
    1W        W46602   7.714  20.649   6.374 -0.0723 -0.1989 -0.4569
    1W        W46603  18.360   3.062   6.311  0.0689  0.1441  0.2833
    1W        W46604  25.207  10.043   7.397  0.0934 -0.1120  0.1696
    1W        W46605  24.999  27.381   2.618  0.0256 -0.1070  0.0889
    1W        W46606   5.446  25.710   0.003  0.0285 -0.2865 -0.0270
    1W        W46607   9.702  15.206   0.547 -0.2806 -0.0464  0.1804
    1W        W46608  26.071  25.555   0.315 -0.0182  0.2283 -0.5359
    1W        W46609  22.952  10.042   0.657  0.0060 -0.0858  0.3965
    1W        W46610  29.643   2.665   0.306 -0.0713 -0.2427  0.1073
    1W        W46611  25.105  15.259   1.533  0.3503  0.1759  0.0872
    1W        W46612  21.053  20.912   0.687  0.1384  0.0579  0.0110
    1W        W46613   2.187  30.111   3.044 -0.0938 -0.1218 -0.1786
    1W        W46614  23.912  26.262   2.319  0.2234 -0.1033  0.0534
    1W        W46615  21.967   3.985   7.382  0.1032  0.2022  0.1257
    1W        W46616   7.074  15.766   0.080  0.1090  0.0933  0.2266
    1W        W46617  20.433  15.647   8.142  0.1055 -0.0739  0.1557
    1W        W46618  17.412  21.856   2.113 -0.1403 -0.2307 -0.2163
    1W        W46619  28.263   4.365   0.946  0.0297 -0.1615  0.2362
    1W        W46620  18.095   5.739   9.261  0.2450 -0.0693  0.1432
    1W        W46621   8.548  25.528   2.639 -0.2226  0.1259  0.1963
    1W        W46622   8.387  20.099   0.022 -0.1197  0.1255 -0.0138
    1W        W46623  11.525   1.974   2.223  0.2579  0.2900  0.0853
    1W        W46624   0.108   9.300   7.138  0.1017 -0.1797 -0.2898
    1W        W46625  21.449  13.134   2.233 -0.1207  0.0206  0.4616
    1W        W46626  11.308  10.750   1.375 -0.0777  0.0741 -0.2320
    1W        W46627   7.334   6.396   8.806  0.1812  0.0755 -0.0623
    1W        W46628  19.303  29.172   7.642 -0.1838  0.1506  0.0312
    1W        W46629  25.662  20.893   8.833 -0.0374 -0.1376 -0.1894
    1W        W46630  16.723  16.964   2.373  0.2378  0.1194 -0.1398
    1W        W46631   8.650   3.722   0.446  0.4833 -0.3009 -0.0433
    1W        W46632  27.754  24.488   8.240  0.1110 -0.1054  0.4547
    1W        W46633  18.328   7.845   6.439 -0.0486  0.4020 -0.3031
    1W        W46634   4.077  27.117   0.562 -0.2567 -0.0125  0.2193
    1W        W46635  29.967  19.417   1.759  0.0276  0.1088 -0.0979
    1W        W46636  27.113   0.284   9.041 -0.2486  0.2724  0.2981
    1W        W46637  14.536   7.497   0.152 -0.1260  0.2833  0.1890
    1W        W46638   8.422  10.503   0.450  0.1100 -0.0495 -0.1211
    1W        W46639  20.548   1.998   8.977 -0.3459  0.0036  0.2491
    1W        W46640  12.900  19.258   2.406  0.1489 -0.0323 -0.1219
    1W        W46641  17.393   8.793   1.075  0.0940  0.1464  0.0599
    1W        W46642   4.322   7.485   8.099 -0.1526 -0.3812 -0.0079
    1W        W46643   8.010  22.099   0.960 -0.3128  0.1567  0.0842
    1W        W46644   6.078  14.691   8.980 -0.1475  0.1698  0.0071
    1W        W46645  10.989   9.077   8.721  0.2735 -0.1038 -0.1199
    1W        W46646  27.216   4.362   7.780  0.1836  0.5040 -0.1235
    1W        W46647  23.828  29.118   8.711 -0.2433 -0.0982  0.2274
    1W        W46648  19.862   4.858   7.983 -0.1332  0.2210 -0.0949
    1W        W46649   9.537   5.317   7.629 -0.0314 -0.1399 -0.1185
    1W        W46650   3.873  29.378   3.131  0.1905 -0.1349 -0.0751
    1W        W46651   0.530  25.535   0.116 -0.2209 -0.2769 -0.1379
    1W        W46652  29.913  14.744   7.579 -0.1097  0.1420  0.0901
    1W        W46653  14.151  17.097   7.673 -0.2780 -0.0975 -0.1740
    1W        W46654  12.244  14.291   3.335  0.1966  0.1140 -0.0846
    1W        W46655  10.428  29.197   0.294 -0.1258 -0.1951 -0.0247
    1W        W46656  19.405   1.061   0.225  0.3123 -0.3061  0.0403
    1W        W46657  29.887  12.969   8.825 -0.2497  0.0271 -0.2464
    1W        W46658   5.543  13.554   0.970 -0.1606  0.1383  0.0969
    1W        W46659  16.342  22.816   8.988 -0.0897 -0.0705  0.0607
    1W        W46660  28.098  16.937   0.682 -0.0157  0.1241  0.0217
    1W        W46661   1.947   9.521   7.032 -0.1002  0.3197  0.0776
    1W        W46662  11.306  13.078   3.007 -0.2166 -0.3093  0.1150
    1W        W46663  29.701  19.794   0.248 -0.2341  0.0832 -0.2933
    1W        W46664   1.127  19.856   0.590 -0.2493 -0.2066  0.1571
    1W        W46665  15.604  28.036   8.450 -0.2522 -0.0001 -0.0065
    1W        W46666  19.341  27.135   0.320  0.1763 -0.2202 -0.3974
    1W        W46667  28.171  20.155   2.135 -0.0800 -0.0053 -0.1586
    1W        W46668  29.348  11.632   8.681 -0.2292 -0.2108  0.2080
    1W        W46669  11.890  24.147   8.037 -0.0633  0.1378  0.0574
    1W        W46670  15.549   5.857   0.837 -0.1358  0.2273  0.0506
    1W        W46671  11.255  26.139   0.356 -0.0749 -0.1667  0.1687
    1W        W46672   3.826  24.391   2.520  0.3435 -0.1477 -0.0371
    1W        W46673   7.863  26.615   9.222  0.0034 -0.0731 -0.1528
    1W        W46674   0.825  16.783   0.866 -0.0863  0.1050  0.3047
    1W        W46675  11.238  25.345   5.948 -0.1376 -0.0642  0.2808
    1W        W46676  13.770   0.031   1.649 -0.2215  0.1483 -0.0565
    1W        W46677  13.075  25.064   2.085 -0.2218 -0.0555 -0.2301
    1W        W46678  19.229  19.511   1.023 -0.0852  0.0275 -0.0440
    1W        W46679  28.373  12.938   8.977 -0.0784  0.1062  0.0099
    1W        W46680  11.083   3.299   0.133  0.0671  0.2317 -0.2725
    1W        W46681   1.482  12.599   7.331  0.0660  0.2830  0.0844
    1W        W46682   8.775  19.568   8.718  0.2314  0.2955 -0.0807
    1W        W46683  17.991  23.190   2.027  0.0691 -0.0992 -0.1610
    1W        W46684  18.039  30.173   8.793 -0.2322 -0.0670  0.1429
    1W        W46685  18.781  17.550   7.145  0.2922 -0.0211  0.0523
    1W        W46686  19.559   2.925   1.507  0.2410 -0.1328 -0.2937
    1W        W46687  17.341   7.157   6.290  0.0234 -0.2041  0.1625
    1W        W46688   3.187   0.931   0.799 -0.4317  0.2396 -0.0442
    1W        W46689  19.840  25.648   7.612  0.0870 -0.2366  0.0535
    1W        W46690  12.427  21.403   1.296  0.0474  0.1037  0.0145
    1W        W46691  20.174  24.672   6.006 -0.0593  0.1179  0.0331
    1W        W46692  26.534  25.921   2.009  0.1674 -0.1053  0.2605
    1W        W46693  23.116  25.464   8.475  0.1239 -0.0755 -0.2273
    1W        W46694  23.332  18.037   7.214  0.1059  0.1591 -0.0290
    1W        W46695  22.068  14.964   8.925  0.2907 -0.3240  0.0618
    1W        W46696  26.145   9.054   8.347  0.0160  0.1793  0.2213
    1W        W46697   2.090  22.449   2.144 -0.3549  0.0468 -0.1644
    1W        W46698   2.239  20.963   7.998 -0.1320 -0.4591  0.0756
    1W        W46699  21.377   5.210   1.220 -0.3469 -0.1664  0.0489
    1W        W46700   5.989   4.844   2.346  0.1196  0.2056 -0.1988
    1W        W46701  21.543  17.498   1.426  0.0518 -0.0975 -0.3163
    1W        W46702  17.664   8.424   7.749  0.1569  0.0091 -0.2739
    1W        W46703   1.715   9.799   7.371 -0.1810  0.0382  0.0649
    1W        W46704  29.442  12.241   7.406 -0.2208 -0.1973 -0.1208
    1W        W46705   6.032  13.521   0.118 -0.3109 -0.3498 -0.1371
    1W        W46706  24.158  21.464   6.356  0.1081 -0.0899  0.1419
    1W        W46707   1.427   7.796   1.777 -0.1019  0.1368  0.3315
    1W        W46708  27.827   8.341   1.402  0.1234  0.1596  0.0595
    1W        W46709   2.763  21.635   7.389 -0.0602  0.3228 -0.1791
    1W        W46710   9.969  10.618   8.411  0.0794 -0.1568  0.1150
    1W        W46711  13.833   5.741   8.893 -0.1095 -0.1664 -0.1624
    1W        W46712  24.331   3.344   7.395 -0.2178 -0.1488 -0.0415
    1W        W46713   1.665  21.574   8.092 -0.0602  0.0321 -0.0624
    1W        W46714  27.249  27.722   8.388  0.0214  0.1028 -0.1557
    1W        W46715  11.427  16.065   8.327 -0.2863 -0.3662  0.0390
    1W        W46716   1.945  26.414   0.917  0.2352  0.0553 -0.2347
    1W        W46717  13.980  16.672   7.959 -0.2329  0.1943 -0.0058
    1W        W46718  23.342  30.178   0.001  0.0722 -0.1926 -0.0612
    1W        W46719   3.817  14.890   8.993 -0.0209  0.2655 -0.0536
    1W        W46720  28.962   5.322   9.196 -0.1139 -0.0518  0.0760
    1W        W46721  13.428  10.332   8.208  0.0433 -0.5010 -0.1737
    1W        W46722  13.635   1.459   8.649  0.0318  0.1245 -0.0811
    1W        W46723   0.123   0.246   8.901  0.3621 -0.0882 -0.0382
    1W        W46724   6.800  21.211   0.644  0.2490 -0.0426  0.0942
    1W        W46725  16.464  24.600   7.875  0.3263  0.3629  0.1948
    1W        W46726   9.767  21.758   2.118  0.1814 -0.1249  0.0200
    1W        W46727  28.142  10.744   1.448  0.0812  0.4365  0.0289
    1W        W46728   1.331  14.346   8.931 -0.0426  0.1077  0.2614
    1W        W46729  28.035   3.057   9.051  0.0416 -0.1857 -0.0735
    1W        W46730  26.543   1.022   8.871  0.0814  0.0749 -0.0353
    1W        W46731   8.494   1.880   8.747  0.1942 -0.1314 -0.2357
    1W        W46732   4.577   2.095   7.782  0.0067 -0.0478 -0.1507
    1W        W46733  29.418   4.059   2.469 -0.1291 -0.0702  0.1787
    1W        W46734  14.757  25.312   1.051  0.0859 -0.4613  0.0284
    1W        W46735   8.014   4.699   2.640  0.1973  0.1497  0.1621
    1W        W46736  25.760   5.964   7.196  0.1610 -0.1830  0.0077
    1W        W46737   6.256   4.394   2.632  0.5211  0.3773  0.1485
    1W        W46738  16.431  10.367   8.414  0.0922 -0.0376 -0.0679
    1W        W46739  28.598  10.844   8.356 -0.1450 -0.0339 -0.0289
    1W        W46740  24.445  23.028   1.566 -0.0909  0.0402  0.3548
    1W        W46741   9.250  25.726   1.623  0.2123 -0.1537  0.4144
    1W        W46742   2.431  26.385   8.816 -0.1874 -0.1377  0.0542
    1W        W46743  17.960  17.000   8.735 -0.2302  0.0965 -0.1203
    1W        W46744   2.405   1.281   0.176  0.0324  0.1267 -0.0171
    1W        W46745  13.934  22.102   0.789 -0.0874  0.5054  0.0441
    1W        W46746  24.084  25.777   0.062 -0.5472  0.0697  0.1503
    1W        W46747   9.688  22.809   0.899  0.1298  0.2457 -0.1415
    1W        W46748  17.021   9.543   8.858 -0.1546 -0.0036 -0.2033
    1W        W46749  14.106   9.823   7.645  0.0324  0.0190 -0.1140
    1W        W46750  20.279  23.023   0.010  0.1149 -0.0940  0.0763
    1W        W46751  19.034   2.562   0.110 -0.0740  0.0437 -0.2073
    1W        W46752   9.053  27.550   7.877  0.1445 -0.2645 -0.2273
    1W        W46753   0.185   2.570   8.809  0.3205 -0.2084  0.1837
    1W        W46754  29.920  15.343   0.516  0.2955 -0.0891  0.1729
    1W        W46755  22.349  16.544   7.401  0.1214  0.1177  0.2144
    1W        W46756  13.535   2.417   8.883 -0.2988 -0.2889 -0.0293
    1W        W46757  30.281  28.131   7.588 -0.3643  0.1818  0.0742
    1W        W46758  17.680  29.756   6.957  0.2497 -0.0269 -0.1247
    1W        W46759  20.445   0.874   7.772 -0.0154  0.0780  0.2250
    1W        W46760  23.492  15.743   6.310  0.0273  0.1980  0.0581
    1W        W46761   6.610   4.216   0.211  0.0301 -0.0328  0.0445
    1W        W46762   5.427   4.720   1.019 -0.0495  0.2003 -0.0658
    1W        W46763  10.802  12.880   8.740 -0.2565 -0.2751 -0.0595
    1W        W46764  13.627  28.095   8.856 -0.0989  0.0889  0.2141
    1W        W46765   6.210  11.329   2.732 -0.0166  0.2089 -0.0389
    1W        W46766   9.577  18.426   1.726  0.1914  0.0293  0.2098
    1W        W46767  12.663   1.043   7.764 -0.2084  0.1654 -0.1433
    1W        W46768  26.322   9.582   0.626 -0.3283  0.1096  0.0362
    1W        W46769  29.347   3.103   7.185  0.0490  0.1310 -0.0865
    1W        W46770  19.007  23.385   1.325  0.0918  0.1339  0.4476
    1W        W46771  11.206  16.991   0.040 -0.0902 -0.0821 -0.3731
    1W        W46772  22.507  18.771   7.870  0.0556  0.0662 -0.4247
    1W        W46773   1.009   9.743   2.134 -0.1413  0.0782 -0.0874
    1W        W46774   7.664  19.038   1.039  0.2902 -0.1769  0.1138
    1W        W46775  20.791   6.650   1.462 -0.0524  0.2146 -0.0302
    1W        W46776  25.749  23.616   1.202 -0.3214 -0.2646 -0.3087
    1W        W46777  11.154   1.533   8.084 -0.2813 -0.1461 -0.1729
    1W        W46778  18.819  20.848   2.128 -0.2427  0.3788  0.0186
    1W        W46779   2.265  13.425   8.971  0.2430 -0.0458 -0.0081
    1W        W46780  23.394  13.097   1.287 -0.0732 -0.0466 -0.0396
    1W        W46781  22.711  16.756   0.097  0.2529  0.0998 -0.1635
    1W        W46782  16.719  12.452   8.109  0.3261 -0.0741 -0.2624
    1W        W46783   2.441   4.108   8.770  0.0601 -0.3222  0.0186
    1W        W46784  27.619  10.952   0.839  0.2399  0.0878 -0.2425
    1W        W46785  22.771  27.054   1.532  0.0357  0.0807 -0.1193
    1W        W46786  20.928   4.769   7.412  0.2885  0.0668 -0.0926
    1W        W46787  18.323  16.969   8.417 -0.1584  0.3864 -0.2844
    1W        W46788  26.403  18.829   7.691 -0.1955 -0.4482  0.0118
    1W        W46789  29.442  25.617   0.797  0.0189  0.3755 -0.1601
    1W        W46790  21.648  26.236   7.242  0.1770  0.1148  0.0999
    1W        W46791  11.579   2.458   1.590  0.0432 -0.1051 -0.0489
    1W        W46792  14.808   3.261   0.298 -0.0731 -0.0207  0.1741
    1W        W46793   6.069  26.200   0.430 -0.0238  0.2236  0.0118
    1W        W46794  27.149  10.500   1.476 -0.2122  0.1861 -0.0645
    1W        W46795  22.696  25.293   2.520 -0.1703  0.0773  0.1921
    1W        W46796   1.284  22.365   8.553 -0.0596 -0.1105 -0.0393
    1W        W46797  28.671   9.522   2.007  0.0771 -0.0259 -0.1083
    1W        W46798  28.958  25.764   9.114 -0.2439 -0.0599  0.0910
    1W        W46799  11.808  21.987   5.996 -0.2737 -0.3067 -0.1925
    1W        W46800  11.710  20.869   0.423  0.0307 -0.0050 -0.3322
    1W        W46801  17.327   9.728   6.050  0.1626  0.2192  0.1296
    1W        W46802  18.623   4.554   2.182  0.1843 -0.0433 -0.0570
    1W        W46803   4.724  12.918   1.006 -0.0221 -0.1975  0.0736
    1W        W46804   2.229  26.810   8.675  0.2121  0.2585  0.0657
    1W        W46805  18.496  25.231   2.789 -0.0042  0.2629  0.0109
    1W        W46806  16.977   1.515   1.406 -0.1144  0.0568  0.0731
    1W        W46807  27.747  23.052   8.098 -0.1419 -0.1989  0.0916
    1W        W46808  23.798  29.589   1.818 -0.0328  0.1920  0.0852
    1W        W46809  21.621  12.041   6.655 -0.0374 -0.2004 -0.0414
    1W        W46810  27.465  18.502   1.863 -0.1618  0.0616 -0.0739
    1W        W46811  24.796   0.274   8.187  0.0533 -0.0331 -0.1760
    1W        W46812  22.433  28.728   3.542 -0.2466  0.1217 -0.0608
    1W        W46813  14.886  22.117   6.386 -0.0693 -0.1679 -0.1461
    1W        W46814  13.757   9.894   7.992 -0.0724  0.0103 -0.0780
    1W        W46815   3.012   4.568   7.764 -0.0266  0.3476 -0.0423
    1W        W46816   1.537  25.882   7.136  0.0468  0.1587 -0.0785
    1W        W46817  18.973  14.878   2.810  0.0096 -0.0870  0.1819
    1W        W46818  10.676  11.405   1.067  0.0348  0.0515  0.1605
    1W        W46819  29.875   3.107   0.174 -0.0709 -0.2108 -0.1377
    1W        W46820   8.517   4.080   2.287  0.1542  0.2353  0.1410
    1W        W46821   3.486  28.944   8.289  0.0036 -0.0509 -0.0296
    1W        W46822  23.464  14.180   1.423 -0.0610 -0.1129 -0.0989
    1W        W46823   9.969   6.047   7.171 -0.2404 -0.0265 -0.1931
    1W        W46824  11.949  10.735   8.427  0.0762 -0.1758 -0.1510
    1W        W46825  22.997  21.145   1.317  0.3082  0.1353 -0.1853
    1W        W46826  15.366   5.203   0.130 -0.1188  0.1553 -0.0122
    1W        W46827   4.514  14.221   1.901  0.1628  0.0392 -0.0317
    1W        W46828   2.342   2.591   3.222  0.0918  0.1322 -0.0975
    1W        W46829   1.090  15.528   8.337  0.0286 -0.0172  0.1100
    1W        W46830  15.814   9.266   6.222  0.1628  0.0732  0.1800
    1W        W46831   2.838   7.341   6.734 -0.0187  0.1611 -0.2461
    1W        W46832  24.846  22.587   7.887 -0.0669 -0.0018  0.1109
    1W        W46833  23.720   4.649   2.290  0.0299  0.2093  0.1512
    1W        W46834   2.444   2.118   0.685 -0.2458  0.2593 -0.0919
    1W        W46835  12.599  23.970   8.646 -0.2111 -0.0738 -0.0811
    1W        W46836  29.810   6.153   7.791  0.1923  0.2471  0.2388
    1W        W46837  28.646   8.533   1.352  0.0874  0.0878  0.2333
    1W        W46838   6.276  18.226   5.935  0.0661 -0.2061 -0.1082
    1W        W46839  21.073   0.277   0.478 -0.0145  0.0422 -0.0121
    1W        W46840   8.859  11.532   2.248 -0.0803 -0.0103  0.2669
    1W        W46841   8.153   9.125   1.957 -0.1806  0.1015  0.1051
    1W        W46842   2.972  23.928   0.118 -0.0781 -0.1286  0.0945
    1W        W46843   3.138   0.525   1.091  0.0242  0.0867 -0.2327
    1W        W46844  14.622  17.187   2.469  0.0830  0.0353 -0.0756
    1W        W46845  12.632  23.362   6.895 -0.1983  0.2835  0.0447
    1W        W46846  22.022   3.042   1.440  0.2819  0.0080 -0.0533
    1W        W46847  16.369  26.774   8.655 -0.2186  0.0240  0.0308
    1W        W46848   6.894  10.616   1.677 -0.1636  0.0090  0.0758
    1W        W46849   3.389  11.198   7.878  0.3065 -0.1798  0.0553
    1W        W46850   4.325   8.716   7.037  0.0323 -0.0197  0.0111
    1W        W46851  18.480  20.273   8.069 -0.0174  0.1004 -0.1603
    1W        W46852   9.066   8.956   8.404 -0.0834 -0.0183 -0.0259
    1W        W46853  14.988   2.488   0.873 -0.0136  0.1989  0.4123
    1W        W46854  18.841  25.000   7.692  0.1918 -0.2277  0.1874
    1W        W46855  25.879  23.898   0.308 -0.1589 -0.1329  0.0045
    1W        W46856  23.344   5.542   1.418 -0.0275  0.1086  0.2695
    1W        W46857   2.685  27.926   7.469 -0.2009  0.0882  0.0610
    1W        W46858  16.003  26.327   0.130  0.4670  0.1562  0.2883
    1W        W46859  23.106  23.436   0.813 -0.0477 -0.5159 -0.2150
    1W        W46860  14.672   9.274   0.212 -0.2952  0.2694  0.1478
    1W        W46861   6.059  21.745   8.024 -0.2659 -0.0453  0.3355
    1W        W46862   0.269   3.497   0.999  0.1874  0.1899 -0.0924
    1W        W46863   2.106  22.695   8.013 -0.2247  0.1032  0.2601
    1W        W46864  29.038  19.439   9.133 -0.0368  0.0829 -0.0373
    1W        W46865  21.360   5.443   0.535  0.2352  0.1489 -0.0063
    1W        W46866  16.879   0.379   0.063  0.0222  0.3395  0.1142
    1W        W46867  29.246  11.613   1.549  0.2878 -0.2401 -0.2489
    1W        W46868   9.950   5.008   2.026 -0.1156 -0.1623 -0.0402
    1W        W46869  18.563   9.694   8.109  0.0206  0.2318  0.1593
    1W        W46870   6.244   1.641   8.502 -0.4201  0.3987 -0.1612
    1W        W46871  20.132  14.689   8.806  0.1653  0.0832 -0.1642
    1W        W46872   8.901   7.602   1.739  0.3309 -0.0778 -0.0839
    1W        W46873   7.263   2.023   7.982  0.0887 -0.1765 -0.2228
    1W        W46874   1.346  24.558   6.585  0.2582  0.1402 -0.3141
    1W        W46875  14.239  29.158   8.230 -0.0544 -0.2371  0.0645
    1W        W46876   4.892  29.413   7.107  0.3010 -0.0355 -0.4271
    1W        W46877  27.924   2.755   4.116  0.1386 -0.1753 -0.2391
    1W        W46878  10.520  14.326   0.031  0.3627 -0.0217 -0.1049
    1W        W46879  16.897  26.294   8.144  0.1036  0.0527  0.2218
    1W        W46880  27.286   7.602   1.715 -0.0037  0.0638  0.3001
    1W        W46881   2.911   0.180   8.427  0.0645  0.1745  0.0237
    1W        W46882   1.342  15.487   0.919  0.0429 -0.1384  0.0019
    1W        W46883  15.044  12.078   1.710  0.2633  0.1724  0.1531
    1W        W46884   0.934  15.130   1.602  0.1185 -0.0039  0.0832
    1W        W46885  28.616  11.081   0.831 -0.2059  0.1860 -0.0192
    1W        W46886   0.892   8.041   0.803  0.0872  0.3116 -0.3072
    1W        W46887  18.002   0.915   6.930 -0.1245 -0.1657 -0.2041
    1W        W46888   2.535   5.816   8.493  0.1650 -0.0870  0.2314
    1W        W46889  13.899  22.874   1.409  0.0079  0.2989  0.1775
    1W        W46890  21.818  16.783   1.840  0.1593 -0.1887  0.0483
    1W        W46891  12.627   5.404   0.495  0.0226 -0.0936 -0.1260
    1W        W46892  22.556  23.066   0.606 -0.1353  0.2492  0.1787
    1W        W46893  23.969  14.060   8.581 -0.1279  0.0569 -0.1579
    1W        W46894  11.351   8.724   8.643  0.1378 -0.0003 -0.3035
    1W        W46895   1.582  13.873   0.973  0.2217  0.1120  0.0217
    1W        W46896   5.214  16.123   0.392  0.1065 -0.1337  0.0508
    1W        W46897   6.959  12.539   8.977 -0.1501  0.2244  0.1412
    1W        W46898  13.120  20.777   8.637  0.1028  0.1241 -0.3297
    1W        W46899  18.478   3.810   7.502  0.1551 -0.1932  0.0298
    1W        W46900  16.823  23.768   7.404 -0.1959 -0.0230 -0.3375
    1W        W46901  28.133  16.095   6.209  0.0665 -0.0509  0.0437
    1W        W46902  13.907  23.816   6.980 -0.0502  0.2886 -0.0953
    1W        W46903  18.345  19.787   0.954 -0.1006 -0.3238  0.2039
    1W        W46904  18.811  17.873   5.868 -0.2085  0.0010 -0.2397
    1W        W46905  20.926   6.926   8.507 -0.1556  0.1518 -0.1649
    1W        W46906   7.733  19.547   1.119  0.1634  0.0431 -0.2534
    1W        W46907  30.056  16.811   1.418 -0.1604  0.1972  0.1012
    1W        W46908   4.366   9.695   1.493 -0.0123 -0.1204  0.1961
    1W        W46909  15.362  27.709   7.542 -0.1884  0.1204  0.0217
    1W        W46910  15.488  29.405   2.819 -0.0739 -0.1313 -0.2191
    1W        W46911  19.255  19.045   1.110  0.0422  0.1173 -0.0353
    1W        W46912  29.496  29.502   8.976 -0.1607  0.0428 -0.1781
    1W        W46913   1.791  24.243   1.910 -0.0001  0.1902  0.2468
    1W        W46914   2.615   5.150   7.101 -0.0561  0.1380 -0.2167
    1W        W46915  29.576   8.007   7.048 -0.3126 -0.2145  0.1786
    1W        W46916   6.059   7.968   0.889 -0.4178  0.0218 -0.2751
    1W        W46917  29.430  25.971   9.049  0.1910  0.0845 -0.2371
    1W        W46918   6.074  10.482   8.729  0.0477 -0.4398 -0.0429
    1W        W46919  29.685   7.636   0.586 -0.0251  0.1282 -0.0665
    1W        W46920  25.877  22.564   7.558  0.2605 -0.0237 -0.0138
    1W        W46921  26.356  26.610   0.171  0.2436 -0.0306 -0.0110
    1W        W46922  20.714   0.643   1.600  0.0466  0.0012  0.1510
    1W        W46923  19.027   5.697   2.178 -0.1465 -0.0267 -0.1586
    1W        W46924  17.572  26.958   0.167  0.1446  0.0393 -0.1240
    1W        W46925  28.658   7.447   1.929  0.0956  0.4089 -0.0136
    1W        W46926  28.434   4.321   2.139  0.1640 -0.1265  0.0169
    1W        W46927  26.465  19.547   9.068 -0.1626 -0.0098  0.0175
    1W        W46928   0.584  21.725   7.399  0.3473  0.0534  0.0651
    1W        W46929  10.818   7.587   7.095 -0.0668 -0.0646 -0.2101
    1W        W46930  17.794  19.875   2.116  0.1884 -0.0721 -0.0222
    1W        W46931  22.003  16.285   1.911 -0.1663  0.1791 -0.0446
    1W        W46932  20.854  21.912   8.260 -0.0769  0.1589 -0.0579
    1W        W46933   4.096  18.227   7.058  0.1014  0.1608 -0.0600
    1W        W46934  16.520  23.815   5.996 -0.1647 -0.1911 -0.0758
    1W        W46935  11.679   6.647   1.057  0.1295  0.1037  0.1195
    1W        W46936  13.513  19.427   1.590 -0.2727 -0.0397 -0.1735
    1W        W46937  11.920   1.129   3.376 -0.4443 -0.2064  0.1547
    1W        W46938  10.617  16.599   7.074 -0.1503  0.0944  0.1206
    1W        W46939  16.520   2.035   0.486 -0.0615  0.1151  0.1137
    1W        W46940  18.535  25.388   8.344  0.3557 -0.0928 -0.1588
    1W        W46941  17.350   9.352   6.845 -0.0973  0.3119  0.2220
    1W        W46942  18.868   5.578   1.689 -0.1131 -0.0425 -0.2857
    1W        W46943  23.451  24.133   6.449 -0.0667 -0.1682  0.0131
    1W        W46944  22.569  19.030   5.575  0.1488 -0.1237 -0.1370
    1W        W46945  20.645   8.543   6.731 -0.2877 -0.1273 -0.0502
    1W        W46946   1.561   5.325   8.741  0.0538  0.1329 -0.0255
    1W        W46947  11.580   2.588   8.514  0.0240  0.1511  0.0528
    1W        W46948  12.034  23.151   1.610 -0.0338 -0.3536 -0.1869
    1W        W46949  24.777   0.633   6.380  0.0777 -0.0358 -0.0151
    1W        W46950  10.198   7.257   8.034 -0.1716  0.2394 -0.2295
    1W        W46951  10.881  10.113   0.062  0.0623  0.0313 -0.2906
    1W        W46952  14.404   7.995   0.091 -0.1137 -0.1123  0.1392
    1W        W46953   8.396  15.231   8.275 -0.1319 -0.1394  0.1783
    1W        W46954   4.390  19.156   7.160  0.0895  0.0882 -0.4625
    1W        W46955  11.875  21.454   6.924  0.1784 -0.0714  0.1147
    1W        W46956   7.688  30.210   0.213  0.1680  0.0885  0.0602
    1W        W46957   8.929  22.248   8.491 -0.1892  0.2009  0.3427
    1W        W46958  21.673  23.120   8.895  0.1575 -0.1739  0.3796
    1W        W46959  17.156   5.826   8.139  0.4643  0.0647 -0.0640
    1W        W46960  10.565  25.169   0.775 -0.1370 -0.3262 -0.0810
    1W        W46961  22.465  20.180   8.317  0.0487 -0.2106  0.2477
    1W        W46962   0.313  16.946   9.088 -0.1202  0.0590 -0.0169
    1W        W46963   3.863  29.709   8.886 -0.2763 -0.1586  0.1391
    1W        W46964   2.621  25.912   2.483  0.1950  0.0882 -0.0224
    1W        W46965  13.058   5.479   8.954 -0.2560 -0.3316  0.1912
    1W        W46966  12.947  19.933   1.712 -0.3020 -0.0582 -0.2811
    1W        W46967   2.433   8.067   0.352  0.0395  0.1685 -0.0479
    1W        W46968   4.800   8.060   0.209  0.0269 -0.1135 -0.0833
    1W        W46969  24.261  25.370   7.042 -0.0776  0.0360 -0.1063
    1W        W46970  14.433  24.808   8.692 -0.0184 -0.5390 -0.1282
    1W        W46971   7.884   5.050   7.264 -0.1051  0.0357  0.1520
    1W        W46972  21.356   2.813   8.450  0.0551  0.0332 -0.0397
    1W        W46973   2.319  25.766   8.951  0.0515  0.3154 -0.0627
    1W        W46974  27.522  21.470   0.141  0.0739 -0.0353 -0.1596
    1W        W46975   2.306  10.149   1.573 -0.0957 -0.2297  0.1883
    1W        W46976  22.513  17.217   9.091 -0.1561  0.1403  0.0502
    1W        W46977   1.000  10.934   1.444  0.0834  0.2605  0.1199
    1W        W46978  14.470   2.248   2.079  0.2018  0.2688  0.1574
    1W        W46979  13.516  14.822   1.928  0.0066  0.1420 -0.0790
    1W        W46980  30.195   7.391   7.087 -0.0649 -0.1452 -0.2608
    1W        W46981   9.220   5.946   7.069 -0.0153  0.0959 -0.5223
    1W        W46982   0.128  15.284   0.450  0.0478  0.0016  0.1489
    1W        W46983   2.839  14.085   7.183  0.1283 -0.3504 -0.2316
    1W        W46984   5.747  28.525   1.860 -0.1042  0.0383  0.2017
    1W        W46985   5.605  27.014   6.160 -0.1271  0.1196 -0.0215
    1W        W46986  23.876  18.817   7.387  0.0259 -0.1311 -0.1110
    1W        W46987  22.659  13.288   7.056 -0.1009 -0.0111  0.0158
    1W        W46988  16.014  14.834   7.456  0.0966  0.1320  0.1625
    1W        W46989   8.463  25.415   6.636 -0.1748 -0.1907 -0.1309
    1W        W46990  10.680   5.474   2.715  0.2839 -0.3531  0.4229
    1W        W46991   5.232  12.715   1.161  0.1799 -0.0038 -0.0296
    1W        W46992  23.059  19.017   2.239 -0.0751 -0.0651  0.1942
    1W        W46993   4.180   6.538   7.093 -0.2394 -0.0878  0.3541
    1W        W46994  12.473  12.447   8.089 -0.1189  0.0780  0.2858
    1W        W46995  13.622   9.063   1.243  0.1553 -0.1502 -0.2638
    1W        W46996   8.249   3.706   1.882  0.2964 -0.1360 -0.0043
    1W        W46997   6.508  10.708   1.436 -0.0537  0.0388  0.1368
    1W        W46998   0.496   1.137   7.844  0.0639 -0.0003 -0.0191
    1W        W46999  13.188   9.255   7.644 -0.0580 -0.2661  0.1941
    1W        W47000  29.214  17.476   6.890 -0.0986  0.0095  0.1260
    1W        W47001  14.672  30.313   6.342  0.3890  0.3455 -0.2526
    1W        W47002  30.260   3.392   1.461 -0.1183 -0.0340 -0.2378
    1W        W47003  26.363   7.638   7.810  0.0767  0.2256  0.2262
    1W        W47004  11.450  18.210   6.980  0.0665  0.1605 -0.2120
    1W        W47005  27.598  20.442   0.783 -0.0758 -0.2160  0.0007
    1W        W47006  10.359   0.561   7.593  0.0025  0.2812  0.0660
    1W        W47007   4.404   7.180   7.719 -0.1331 -0.1459 -0.0294
    1W        W47008   5.699   9.188   7.143  0.0553  0.0237  0.2660
    1W        W47009   9.154  15.168   2.207 -0.0401 -0.2045 -0.1528
    1W        W47010   3.383  15.653   8.734  0.1971 -0.0337 -0.3340
    1W        W47011  13.211  30.175   7.819  0.1427 -0.1936  0.2405
    1W        W47012  28.679   2.867   8.673 -0.2646 -0.0326  0.0811
    1W        W47013  13.651  23.948   8.758  0.1942  0.0123 -0.0353
    1W        W47014  12.690   3.812   8.939 -0.2915 -0.3278  0.0359
    1W        W47015   3.256  11.537   2.741  0.0817  0.0489 -0.0474
    1W        W47016   5.888  19.992   8.335  0.1472 -0.2280  0.1412
    1W        W47017  24.878  17.192   1.506  0.2209 -0.0359 -0.2803
    1W        W47018   9.906   7.463   0.895 -0.0994  0.1222  0.0704
    1W        W47019  19.617  28.192   2.758 -0.1565 -0.2074  0.1507
    1W        W47020   7.151  30.013   1.033 -0.0404 -0.2146  0.2539
    1W        W47021   5.144  22.171   0.381  0.2028  0.1378  0.2537
    1W        W47022  20.730   7.719   6.202 -0.0380 -0.1699 -0.1462
    1W        W47023  10.017  21.483   7.694 -0.2683 -0.0021  0.0584
    1W        W47024  14.585  25.586   0.299  0.1035  0.1184  0.1871
    1W        W47025  14.122  11.434   7.623  0.0415  0.0125 -0.0963
    1W        W47026  29.472   6.807   2.520 -0.0814  0.3072 -0.1678
    1W        W47027   9.364  11.628   7.407  0.0201 -0.1436 -0.3319
    1W        W47028   6.720  27.836   7.342 -0.1183 -0.0358  0.0611
    1W        W47029  14.413  22.649   1.795 -0.1532  0.0925  0.1254
    1W        W47030  30.121  29.086   7.231  0.1446 -0.5788 -0.0269
    1W        W47031  27.919  24.757   7.659 -0.0302 -0.1553  0.2369
    1W        W47032   9.260   1.438   8.327  0.3854 -0.1771  0.1335
    1W        W47033  13.708  28.901   1.618  0.0999  0.1676  0.4872
    1W        W47034   4.651  21.007   8.939 -0.0137  0.2732 -0.2172
    1W        W47035  29.621  22.620   7.103  0.1636 -0.2517 -0.5087
    1W        W47036   5.982  24.481   7.381  0.3331 -0.1758  0.1916
    1W        W47037   6.541   4.910   2.504  0.1342 -0.3557 -0.2961
    1W        W47038  19.808  24.142   7.632 -0.1663 -0.1888  0.0982
    1W        W47039   3.720  26.904   8.632  0.2819  0.0853 -0.1624
    1W        W47040  12.014   8.302   7.372 -0.1650 -0.3234 -0.4184
    1W        W47041  27.311  15.692   7.161  0.1045  0.1017 -0.1622
    1W        W47042   3.942  25.566   2.595  0.0086  0.0740  0.1181
    1W        W47043  12.802  15.844   8.236  0.0860 -0.1607 -0.1972
    1W        W47044   6.212  28.525   7.664  0.1742  0.0014 -0.0471
    1W        W47045   5.091  10.764   1.899  0.5583 -0.2888 -0.0608
    1W        W47046   3.041  10.439   2.179  0.0497 -0.0543  0.0909
    1W        W47047   1.232  23.446   8.986 -0.0571 -0.0990  0.5851
    1W        W47048  27.836   4.604   1.116  0.1617  0.0514 -0.0703
    1W        W47049   6.518  25.873   0.533 -0.0333  0.1641 -0.1036
    1W        W47050   5.969  11.538   1.764  0.1179 -0.3608  0.1472
    1W        W47051  23.195   4.215   6.752 -0.0669  0.2059 -0.2238
    1W        W47052  19.391  17.529   6.485  0.2140  0.1185 -0.3057
    1W        W47053  20.570   4.574   2.828 -0.1427 -0.1927 -0.0123
    1W        W47054   6.247   5.617   7.419 -0.2002 -0.1439 -0.1299
    1W        W47055  12.953  27.563   0.427 -0.0729  0.1153  0.2285
    1W        W47056  18.639  15.194   6.794 -0.1181 -0.0909  0.0132
    1W        W47057   4.925  22.285   7.144  0.0334  0.0159 -0.2279
    1W        W47058  11.163   1.191   2.089 -0.0313 -0.1630 -0.1238
    1W        W47059  21.029  29.432   2.111 -0.0559  0.1031 -0.0429
    1W        W47060  13.815  21.011   7.620  0.0467  0.1945 -0.1071
    1W        W47061   3.325   5.859   2.217  0.0192 -0.1536  0.1214
    1W        W47062   7.843   6.120   2.804 -0.1302 -0.0524 -0.1790
    1W        W47063  19.968   7.615   6.710  0.0537  0.1256  0.2799
    1W        W47064   9.012  11.779   8.820  0.2623  0.0848  0.0566
    1W        W47065  23.956   7.826   2.153 -0.1274  0.1943 -0.0021
    1W        W47066  11.235   8.963   7.632 -0.4516 -0.0181  0.1162
    1W        W47067   0.818   3.689   1.657 -0.3352  0.1323 -0.1435
    1W        W47068  19.049  17.994   7.630 -0.2771 -0.0731 -0.2115
    1W        W47069   3.229   2.720   3.435 -0.0214 -0.1780 -0.0408
    1W        W47070  19.009   5.483   0.945 -0.1804 -0.2664 -0.4944
    1W        W47071   3.431   1.391   2.712  0.1040  0.0383 -0.0462
    1W        W47072  10.650   9.777   7.003  0.1332 -0.0770  0.0145
    1W        W47073  19.565  23.903   8.824 -0.2644  0.1875  0.0616
    1W        W47074   4.912   0.746   7.747 -0.3868  0.2840 -0.2374
    1W        W47075  20.425  12.855   9.068 -0.2255 -0.0567  0.3072
    1W        W47076  24.778   6.115   7.181 -0.4254  0.0480 -0.0816
    1W        W47077  13.895  25.712   7.740  0.4361  0.0123 -0.0807
    1W        W47078  11.466  29.726   8.914  0.0982  0.1734  0.0462
    1W        W47079   6.015  27.475   7.507 -0.0853 -0.1090 -0.1124
    1W        W47080  12.998  17.883   6.984  0.0877  0.1575  0.3473
    1W        W47081  16.206   4.516   7.974  0.1976 -0.0331  0.1413
    1W        W47082  18.920  22.902   1.815  0.1047  0.2560 -0.1580
    1W        W47083  12.392   4.861   8.789 -0.0579 -0.1387 -0.0127
    1W        W47084  22.590   7.624   8.554  0.0166 -0.0904  0.2356
    1W        W47085  11.928  21.622   8.407  0.2638  0.1414  0.2255
    1W        W47086  27.336   5.235   7.537  0.0248 -0.3754  0.0094
    1W        W47087  29.223   8.066   8.071 -0.1140  0.0751  0.0350
    1W        W47088   6.634  19.591   1.716  0.1089 -0.0146  0.0056
    1W        W47089  19.650  17.154   1.864 -0.1309  0.0307  0.2519
    1W        W47090  21.498  25.275   2.724 -0.0139  0.0924  0.3663
    1W        W47091  17.260  29.524   7.064  0.1092  0.2619 -0.1361
    1W        W47092  16.849  18.840   0.765 -0.0428  0.5092 -0.1086
    1W        W47093  22.585  22.878   1.584 -0.2410 -0.3751  0.0181
    1W        W47094  18.638   6.884   6.933  0.0127 -0.0062 -0.0203
    1W        W47095  17.196  29.530   1.705  0.1847  0.2877 -0.0266
    1W        W47096  22.815  11.230   0.801 -0.0582 -0.2340  0.1560
    1W        W47097   4.788  27.378   2.826 -0.4591  0.0286 -0.0325
    1W        W47098   2.326  18.717   0.756 -0.0478  0.2514  0.1910
    1W        W47099   0.129  26.349   0.202 -0.1047 -0.1031 -0.1853
    1W        W47100   5.175  14.254   1.084  0.0625 -0.0477  0.1453
    1W        W47101  20.556  28.505   1.005 -0.0923 -0.1451 -0.3478
    1W        W47102  16.597   5.623   2.033 -0.1522 -0.3683 -0.1120
    1W        W47103   4.041   1.714   1.626 -0.2286  0.0895  0.0258
    1W        W47104  14.229  24.590   7.703  0.0335 -0.1182  0.5110
    1W        W47105  12.529  19.038   6.404 -0.1507  0.2270  0.2017
    1W        W47106   9.449   0.965   8.541 -0.0428  0.1594 -0.2261
    1W        W47107  21.986  27.743   2.906  0.1264  0.0415 -0.1585
    1W        W47108  19.694  27.726   8.501  0.0518 -0.1063 -0.1277
    1W        W47109  23.216  28.833   7.217 -0.0791 -0.3553  0.0887
    1W        W47110  20.381  28.179   8.614 -0.2100  0.0568 -0.2063
    1W        W47111   4.885  20.741   8.248  0.1294 -0.2425  0.5299
    1W        W47112  11.175  22.745   8.533 -0.0291 -0.4036 -0.1074
    1W        W47113  10.375  11.035   7.608 -0.2186  0.4103  0.0046
    1W        W47114   7.361  22.854   9.095 -0.1541  0.0947 -0.0378
    1W        W47115  27.627   7.427   2.120 -0.3877  0.0197 -0.0895
    1W        W47116   5.843   9.174   7.592 -0.1346 -0.1364 -0.0232
    1W        W47117  20.110  20.970   7.062  0.2211 -0.1654  0.0324
    1W        W47118  23.253  20.948   1.724 -0.6648  0.1599 -0.0939
    1W        W47119  29.225  24.866   1.252  0.0656 -0.2224  0.1041
    1W        W47120  28.751  22.862   8.866  0.1852 -0.3049  0.3479
    1W        W47121  24.341  26.235   6.913  0.1399  0.1191 -0.1267
    1W        W47122   1.068   2.548   3.650  0.0947  0.1356  0.0166
    1W        W47123  17.800  23.209   1.183 -0.0978  0.0128 -0.2768
    1W        W47124   8.928   2.462   0.653  0.2883  0.1312 -0.1299
    1W        W47125  18.680  18.331   8.439 -0.0224  0.0624 -0.0455
    1W        W47126  19.882  17.785   7.195  0.0261 -0.0084  0.0441
    1W        W47127  26.197  12.373   8.669  0.0573  0.1493 -0.1964
    1W        W47128   9.730  20.351   6.681  0.1110 -0.1613 -0.1734
    1W        W47129   4.673   0.851   7.315  0.0003 -0.3519 -0.0363
    1W        W47130  24.123  18.214   2.159  0.1881 -0.2874 -0.0002
    1W        W47131   8.343  16.744   8.082 -0.0764 -0.1909 -0.0480
    1W        W47132  18.527  13.410   0.393  0.1872  0.0993  0.2339
    1W        W47133   4.245   2.058   0.365  0.1885  0.1457  0.1053
    1W        W47134   4.391  26.445   0.544  0.1891 -0.1815  0.1971
    1W        W47135   2.824  28.330   0.933  0.0640 -0.2290 -0.0722
    1W        W47136  17.017  22.879   2.953 -0.0782 -0.4084 -0.0525
    1W        W47137  24.829   9.430   8.608 -0.2434 -0.3972  0.2343
    1W        W47138  10.464  23.929   6.460 -0.4212 -0.1879 -0.1820
    1W        W47139  12.484  26.102   0.512 -0.0488 -0.0314  0.1892
    1W        W47140  23.724   3.219   3.474 -0.0046  0.0254 -0.0068
    1W        W47141  27.057  16.128   1.215 -0.0483  0.0345 -0.1317
    1W        W47142   9.458   0.833   1.671 -0.2274 -0.0448 -0.0235
    1W        W47143  23.052  15.910   7.658  0.3441  0.3069  0.2523
    1W        W47144   9.666  11.989   6.434  0.0122  0.1933  0.2121
    1W        W47145  13.643  20.644   6.571  0.1255  0.2451  0.0806
    1W        W47146  14.638  27.208   8.058  0.3340  0.0260  0.1972
    1W        W47147  12.854  18.787   7.859  0.4033  0.4478  0.0408
    1W        W47148   1.237   7.451   7.373  0.3348 -0.0156  0.0425
    1W        W47149  15.926  25.643   7.632 -0.2157 -0.2692 -0.1681
    1W        W47150  15.848  29.792   8.294  0.3201  0.2279  0.0981
    1W        W47151  22.413   0.831   0.316  0.1356 -0.0858 -0.0395
    1W        W47152  11.862   5.760   2.254  0.0092  0.1533  0.1524
    1W        W47153  25.259  16.727   1.003  0.1904 -0.1344  0.0829
    1W        W47154  13.888   6.538   7.475  0.1202 -0.2163  0.1483
    1W        W47155  12.953   1.760   1.981  0.3165 -0.2203 -0.1439
    1W        W47156  16.408  19.082   0.605 -0.1124  0.0993 -0.0917
    1W        W47157  19.796  21.982   8.968  0.0426  0.0462  0.1118
    1W        W47158  16.069  17.781   1.900  0.2150 -0.2971  0.0470
    1W        W47159  19.774  16.466   6.901  0.1901 -0.1618 -0.1473
    1W        W47160  22.203  23.748   1.414 -0.0990  0.2002 -0.1850
    1W        W47161  28.747  21.778   8.575 -0.0810  0.1108 -0.1785
    1W        W47162   5.006   7.870   2.075  0.2539 -0.2599 -0.0346
    1W        W47163  19.398  25.791   0.480  0.4832  0.3404 -0.0931
    1W        W47164  25.454  13.352   6.642  0.0424 -0.0897  0.1587
    1W        W47165   0.792   3.315   2.123 -0.0605 -0.2923  0.0197
    1W        W47166  25.936  24.331   7.025 -0.0577 -0.3012 -0.3457
    1W        W47167  24.992  11.052   6.189  0.1820 -0.0865 -0.2667
    1W        W47168   0.310  29.336   3.039 -0.0057 -0.2887 -0.0024
    1W        W47169  18.148   6.853   8.913  0.1244 -0.0524  0.1705
    1W        W47170  13.207  10.124   0.208 -0.1659 -0.0443 -0.0876
    1W        W47171   7.854  29.792   0.035 -0.0885 -0.0848 -0.0513
    1W        W47172  20.952  21.200   7.829 -0.1364  0.2627  0.0092
    1W        W47173  15.608  24.422   6.889  0.0960  0.3046  0.1828
    1W        W47174  25.695  26.811   3.181  0.0955  0.1607 -0.0291
    1W        W47175  24.451  23.932   1.676  0.0733  0.0346 -0.0481
    1W        W47176  22.801  14.610   1.735  0.1548 -0.0297 -0.0805
    1W        W47177  29.671   3.436   2.257 -0.2357  0.0574 -0.0685
    1W        W47178  12.664  10.835   7.503  0.2082  0.3757 -0.2634
    1W        W47179  17.966  18.870   0.307 -0.1899 -0.3895 -0.2087
    1W        W47180   0.793   0.292   0.258  0.2363 -0.0381 -0.0612
    1W        W47181  19.326   2.256   1.091  0.3681 -0.1768 -0.1125
    1W        W47182  23.798  29.559   8.395  0.0432  0.1956  0.4123
    1W        W47183  13.162   1.639   7.760  0.1562  0.1969  0.1447
    1W        W47184   7.908  27.238   1.220  0.2718  0.1727 -0.0076
    1W        W47185  27.395  21.358   8.666 -0.0086  0.0241  0.3191
    1W        W47186  26.112  28.338   7.617  0.0838  0.0718 -0.0408
    1W        W47187   0.347   5.875   2.420  0.0233  0.2245  0.1560
    1W        W47188   1.898   7.866   0.282  0.1276 -0.0284  0.0451
    1W        W47189  30.341  12.956   1.539 -0.2424  0.1390  0.0636
    1W        W47190  30.033  29.367   0.557 -0.0477 -0.1872 -0.0689
    1W        W47191  18.778   0.523   6.878  0.3041  0.3438  0.0717
    1W        W47192  13.408   1.484   6.690  0.1162  0.1240 -0.1430
    1W        W47193  22.262  11.630   1.641  0.0428  0.0560  0.1876
    1W        W47194   5.699  28.677   7.314  0.1527 -0.1667  0.0187
    1W        W47195  27.578  10.351   1.229 -0.1006  0.0528  0.1494
    1W        W47196   1.163   3.953   8.873 -0.2715  0.0606 -0.2528
    1W        W47197  15.570  16.692   0.363 -0.1475  0.0077 -0.1703
    1W        W47198  14.694   7.749   7.810 -0.0619 -0.1056  0.1185
    1W        W47199  25.031  24.665   1.615 -0.2229  0.1303 -0.1782
    1W        W47200  27.426   4.612   0.362  0.0401 -0.1526  0.1219
    1W        W47201   2.225   6.348   7.832  0.0210 -0.1276 -0.1069
    1W        W47202  29.073  14.473   8.080 -0.0457  0.0441 -0.0064
    1W        W47203   6.046   8.307   1.632 -0.2289  0.2692  0.2671
    1W        W47204  14.038  11.762   3.103 -0.2333 -0.1781 -0.0443
    1W        W47205   5.090  21.568   7.327  0.1674 -0.2008  0.1875
    1W        W47206  30.005  23.946   0.725  0.0080  0.1386 -0.0540
    1W        W47207  21.398  21.522   6.368 -0.4882 -0.0438  0.0797
    1W        W47208   5.790   3.051   1.928  0.0946  0.1473  0.2891
    1W        W47209  18.429   6.901   1.870 -0.2568  0.1442  0.0619
    1W        W47210   9.680  22.955   6.664 -0.2324  0.1940  0.2003
    1W        W47211   6.838  12.080   7.838  0.1947 -0.0746 -0.0607
    1W        W47212  14.427  14.763   8.739  0.0067 -0.0207 -0.2444
    1W        W47213  11.385  10.306   9.236  0.5290  0.1079 -0.0134
    1W        W47214  28.034   0.256   3.618 -0.1669 -0.0023 -0.0466
    1W        W47215  10.290   3.482   0.129 -0.0467 -0.3516  0.2179
    1W        W47216  16.645   3.270   8.031 -0.1624  0.0189  0.5432
    1W        W47217   8.655   9.993   9.181 -0.1799 -0.3195  0.2152
    1W        W47218   0.028  27.992   1.517 -0.0051 -0.0947  0.4064
    1W        W47219   2.420   1.089   1.109  0.0836  0.2016  0.1874
    1W        W47220  29.803  21.898   1.855  0.0098 -0.1629 -0.0185
    1W        W47221  19.688   2.285   6.960  0.1521  0.1378  0.0627
    1W        W47222   3.066  10.301   6.255 -0.1470 -0.0327 -0.1957
    1W        W47223   9.238   8.281   2.675  0.1967  0.1426 -0.2363
    1W        W47224   3.133  25.240   7.365  0.1538 -0.2777  0.0323
    1W        W47225  11.651   5.125   8.885  0.1865  0.0210 -0.1872
    1W        W47226   9.326  25.596   9.065  0.2894  0.3936  0.0606
    1W        W47227  10.995  19.820   7.630  0.0198  0.0433  0.2398
    1W        W47228   0.980  25.548   2.687 -0.1533  0.0835  0.2161
    1W        W47229  15.673  23.405   8.516 -0.1804  0.3442 -0.1244
    1W        W47230  14.376  19.813   1.780  0.2635 -0.0454 -0.2087
    1W        W47231  12.466  10.509   3.175  0.0703 -0.2609  0.1782
    1W        W47232   2.000   2.986   3.117  0.0519  0.2872 -0.0031
    1W        W47233  24.532   0.541   7.348 -0.2396 -0.1829  0.1079
    1W        W47234  15.616  11.474   6.984 -0.1456 -0.2083  0.2209
    1W        W47235  22.732  18.291   8.452 -0.2151 -0.2091 -0.0436
    1W        W47236   2.761   9.957   2.396 -0.0791  0.3850 -0.0892
    1W        W47237  20.652   1.488   9.056 -0.3057 -0.1713 -0.0433
    1W        W47238   8.382   9.636   0.086  0.0737  0.1125 -0.0189
    1W        W47239  18.659  21.822   8.105  0.2682 -0.0118 -0.2345
    1W        W47240   2.316  28.249   7.502  0.0258  0.0818 -0.2143
    1W        W47241   3.050   0.872   2.641  0.1199 -0.0844  0.1922
    1W        W47242  25.281   3.530   1.159 -0.0215  0.1373 -0.0036
    1W        W47243   5.216   9.208   7.477  0.3085  0.0166 -0.0261
    1W        W47244  22.464   4.972   0.325  0.0718  0.0747 -0.0931
    1W        W47245  24.613  24.720   3.302 -0.1470  0.0797  0.0222
    1W        W47246  30.123  14.916   0.675 -0.0223  0.1471 -0.0619
    1W        W47247  22.384  19.094   8.797  0.0017  0.0651  0.1783
    1W        W47248  21.922  10.775   0.843  0.0610  0.1701  0.1346
    1W        W47249  23.510  27.722   7.246  0.0274  0.2926  0.2662
    1W        W47250  28.301  19.467   1.402 -0.1366 -0.1777  0.0581
    1W        W47251  10.202   2.310   6.338  0.0975 -0.2175 -0.1777
    1W        W47252  10.146  10.287   8.702  0.0704 -0.0150 -0.0603
    1W        W47253   8.137  14.034   0.787 -0.0707  0.0325  0.0319
    1W        W47254  26.267  17.051   8.876  0.2544  0.1896  0.0581
    1W        W47255  19.228   9.708   7.208  0.2943 -0.1912  0.2491
    1W        W47256  22.990   8.849   8.070  0.0502 -0.1966 -0.0463
    1W        W47257  16.886  13.734   2.582  0.0826  0.1500  0.1077
    1W        W47258   2.781  21.295   1.508 -0.1003  0.2177 -0.0752
    1W        W47259   5.633   6.233   7.944  0.2084  0.0333 -0.1190
    1W        W47260  12.757   4.831   6.731 -0.1583 -0.2967 -0.1701
    1W        W47261  24.328  11.975   0.619 -0.0196 -0.0325  0.1061
    1W        W47262  22.648  10.037   8.990 -0.1663 -0.0930  0.1980
    1W        W47263  23.556  29.418   3.064 -0.0594  0.0942  0.1300
    1W        W47264   0.647  11.870   8.442 -0.2553  0.0215  0.0909
    1W        W47265  25.422   3.892   8.296  0.0339  0.0927 -0.1161
    1W        W47266  27.925   6.889   7.134  0.2609  0.1920  0.0743
    1W        W47267  19.484  21.932   0.237 -0.0054  0.0454  0.0060
    1W        W47268   5.937   3.795   3.171 -0.0762 -0.0551  0.0939
    1W        W47269  16.863   4.323   2.549 -0.2768 -0.2088  0.0988
    1W        W47270   1.469   9.093   0.377  0.0604  0.3598 -0.0038
    1W        W47271   8.355   1.736   1.642 -0.0672  0.0671 -0.1553
    1W        W47272   9.830  20.369   7.807  0.0276 -0.3179 -0.2014
    1W        W47273   3.460   1.914   2.825  0.0107 -0.0221  0.1348
    1W        W47274  15.810  20.218   7.842 -0.1226  0.2626  0.3486
    1W        W47275  17.708  14.659   8.790  0.0897 -0.2037  0.1270
    1W        W47276  20.941  17.131   8.994  0.2569  0.1532 -0.1481
    1W        W47277  15.554  21.020   2.389 -0.0175  0.3076 -0.1042
    1W        W47278  12.003   6.865   9.074  0.0927  0.0367  0.0599
    1W        W47279  16.683  22.347   1.805 -0.1872  0.0366  0.1223
    1W        W47280   2.627   1.679   8.503  0.1949  0.0048  0.3016
    1W        W47281   8.078  10.739   1.222  0.0041 -0.2733 -0.0846
    1W        W47282  23.157   9.868   1.498 -0.1275  0.1896  0.1238
    1W        W47283  12.993  21.294   3.046  0.0645 -0.0814 -0.2896
    1W        W47284  13.496  30.248   8.234  0.1184 -0.2389 -0.2896
    1W        W47285  16.072   9.242   8.127 -0.2682  0.1647 -0.1467
    1W        W47286  19.511  18.242   6.569 -0.1950  0.1734  0.2063
    1W        W47287   6.748  10.612   0.782  0.1290  0.0823 -0.0989
    1W        W47288  25.610  10.667   6.828 -0.0558 -0.2072  0.1937
    1W        W47289  13.332  15.246   7.150  0.1210 -0.0043  0.1112
    1W        W47290  16.951  11.838   0.240 -0.0718 -0.0248 -0.0359
    1W        W47291   6.315  18.531   0.026 -0.0441 -0.2624  0.1203
    1W        W47292  17.415   2.021   2.862 -0.0044  0.2056  0.4306
    1W        W47293  27.294   1.494   7.587  0.1332 -0.1762 -0.0685
    1W        W47294   2.667   1.942   6.848 -0.2691 -0.0793  0.0567
    1W        W47295   5.737   8.295   0.333  0.1774  0.0424 -0.2530
    1W        W47296  12.477   5.899   6.338  0.2374  0.0582 -0.2963
    1W        W47297  26.831  20.642   7.722 -0.0133  0.1573  0.1737
    1W        W47298  11.611   1.524   6.753 -0.1045  0.1324  0.0160
    1W        W47299   0.586  23.349   6.971  0.1669 -0.0177  0.0821
    1W        W47300   2.108   7.786   7.123 -0.0827 -0.0142  0.0960
    1W        W47301   9.364  26.347   8.430  0.0563  0.0152 -0.0291
    1W        W47302  26.328   1.987   1.607  0.0383 -0.2181  0.2006
    1W        W47303   2.722   6.261   7.680 -0.1410  0.2742  0.1867
    1W        W47304  11.283  24.279   6.269 -0.1448  0.0819  0.3024
    1W        W47305  27.273  19.108   6.199 -0.0307  0.0214  0.2125
    1W        W47306  28.276  14.197   0.923  0.2756 -0.1678 -0.2008
    1W        W47307  10.248  30.272   2.416 -0.0481  0.0259  0.2014
    1W        W47308  29.393  19.003   7.115  0.2361 -0.0199 -0.0176
    1W        W47309  20.233   1.672   1.082 -0.0441 -0.3427 -0.0875
    1W        W47310   1.128   2.035   8.204 -0.0110 -0.0829  0.0389
    1W        W47311  13.154  28.796   2.119  0.2545 -0.3956  0.0947
    1W        W47312  20.209   2.200   0.028 -0.2018 -0.0402  0.2928
    1W        W47313  28.490   6.819   8.559 -0.0567  0.1132  0.0069
    1W        W47314  14.894  27.585   0.934  0.0632  0.1798 -0.1786
    1W        W47315  29.740  29.919   9.007  0.1760  0.0188 -0.2191
    1W        W47316  25.515  26.329   1.171 -0.1794  0.0085  0.0324
    1W        W47317   0.264  20.770   7.104 -0.1769  0.0584 -0.1148
    1W        W47318  18.829   1.988   7.379  0.0874  0.0607 -0.0176
    1W        W47319   8.417  13.497   2.338 -0.0163 -0.0648 -0.2905
    1W        W47320   3.313  26.692   7.893  0.0485  0.1586 -0.0916
    1W        W47321   1.766  23.648   8.865  0.2198 -0.3549 -0.1648
    1W        W47322  25.358  27.499   9.073 -0.2096 -0.1380 -0.1329
    1W        W47323   3.645  27.592   1.646 -0.0111 -0.1911  0.0186
    1W        W47324   4.018  14.713   7.318 -0.2151  0.1955 -0.0161
    1W        W47325  14.928  13.667   7.639 -0.2278 -0.0302  0.2523
    1W        W47326   0.800   6.588   0.242 -0.0478  0.0559 -0.2312
    1W        W47327  24.025   2.843   7.365  0.1186  0.1107 -0.0665
    1W        W47328  18.447   6.651   7.363 -0.1923 -0.1364 -0.0864
    1W        W47329  19.929  20.340   1.866 -0.0622 -0.0257  0.4376
    1W        W47330   7.122  12.276   0.094  0.1073 -0.0237  0.2789
    1W        W47331  14.300  10.349   6.877  0.1782 -0.0268 -0.0727
    1W        W47332  24.857  28.107   1.921 -0.2374  0.3224  0.3595
    1W        W47333  22.873  26.080   0.845 -0.1147  0.0460  0.3333
    1W        W47334  21.725  13.511   6.515  0.2489 -0.0496  0.3465
    1W        W47335  10.263   4.146   7.151 -0.0422 -0.2538  0.0766
    1W        W47336  19.112  18.481   6.935 -0.0933  0.1691  0.0420
    1W        W47337   0.142  11.257   1.850 -0.0209 -0.1553  0.1041
    1W        W47338   3.868  20.179   7.206 -0.0320 -0.2880  0.2131
    1W        W47339  14.351   1.707   0.766  0.0169 -0.2082 -0.1435
    1W        W47340   8.090  12.580   6.886 -0.0497 -0.0184  0.0884
    1W        W47341  27.422  30.344   2.555 -0.1691  0.1768 -0.4170
    1W        W47342   3.741  29.253   8.636  0.0732 -0.1323  0.1466
    1W        W47343  12.274  18.579   8.759  0.0403  0.1759  0.0889
    1W        W47344  10.427   5.215   7.017  0.0103  0.1155 -0.0526
    1W        W47345   5.318   3.345   0.574  0.2188 -0.3769  0.2933
    1W        W47346   1.002  22.142   1.169  0.0532  0.0758 -0.1279
    1W        W47347   6.132   8.874   6.471  0.0074  0.1525  0.1653
    1W        W47348   2.249  25.507   0.896 -0.0943 -0.3629  0.3946
    1W        W47349   6.387   3.706   3.542  0.0241 -0.0102  0.1145
    1W        W47350  14.243   5.659   6.972  0.1076 -0.3761 -0.0066
    1W        W47351  20.767  22.421   8.381  0.2053  0.1245  0.0934
    1W        W47352  27.514  14.404   6.454 -0.2814  0.2159 -0.0021
    1W        W47353  25.203   6.669   0.059  0.0868  0.0740 -0.2187
    1W        W47354   1.848  23.045   8.289  0.0241 -0.2739 -0.0098
    1W        W47355  11.624   8.877   0.831  0.3103 -0.0228  0.3317
    1W        W47356  13.050  28.263   2.756 -0.0892  0.0911  0.0002
    1W        W47357  13.243  20.193   0.977  0.0801  0.0100 -0.3709
    1W        W47358  10.427  27.214   8.926  0.2389 -0.0587 -0.1549
    1W        W47359  16.845   9.289   6.667 -0.1472  0.0519  0.0393
    1W        W47360  12.264  18.443   1.287  0.2197 -0.1645 -0.2526
    1W        W47361   9.435  10.454   1.710  0.0161  0.1930  0.0324
    1W        W47362  14.694   9.642   9.155 -0.0160 -0.3823  0.4327
    1W        W47363  14.222  18.159   6.245 -0.0036  0.1758 -0.0051
    1W        W47364   1.382   9.352   0.852  0.2331 -0.2958 -0.1839
    1W        W47365  10.652   3.045   0.094 -0.0364  0.1376  0.0101
    1W        W47366  21.748  17.736   1.941 -0.1347 -0.0255  0.0582
    1W        W47367  14.883  20.476   5.885  0.3470  0.2840  0.1361
    1W        W47368   9.489  14.478   1.315 -0.2271  0.1993  0.0061
    1W        W47369   4.069   8.058   7.454  0.1396  0.5518  0.1742
    1W        W47370  29.649   9.331   8.879  0.3716  0.2468  0.1008
    1W        W47371  17.304   1.787   9.087  0.2561  0.0581  0.0451
    1W        W47372  10.557   8.509   2.889 -0.0996  0.2552  0.0463
    1W        W47373   5.406  12.438   0.394 -0.0881 -0.0558  0.1633
    1W        W47374  13.746  23.138   0.231  0.1221  0.1083 -0.0917
    1W        W47375  27.852   9.243   0.348 -0.2237  0.2233 -0.1306
    1W        W47376   7.085   9.065   8.645  0.0101  0.1562  0.4666
    1W        W47377  20.393   2.042   2.049 -0.0470  0.0795  0.0803
    1W        W47378  22.226   6.786   6.662 -0.0091  0.3434  0.2232
    1W        W47379  23.310   9.176   6.396  0.0288 -0.3034  0.0436
    1W        W47380   1.118   2.507   7.858  0.1071 -0.3034 -0.1169
    1W        W47381  21.319   1.646   8.199 -0.1200 -0.2313 -0.0620
    1W        W47382   8.873  12.315   8.181  0.3151  0.1665  0.3230
    1W        W47383  29.153  24.510   8.679 -0.1467  0.0803  0.0451
    1W        W47384   8.381  28.063   1.510  0.1158  0.2701 -0.1386
    1W        W47385   8.968  23.190   8.739 -0.1473 -0.1150 -0.1619
    1W        W47386  19.413   0.999   0.717  0.0599 -0.1060 -0.1143
    1W        W47387   4.329  16.601   0.297  0.1271  0.0938 -0.2050
    1W        W47388  16.184  30.046   3.159  0.2603 -0.1925 -0.1608
    1W        W47389  28.045  28.174   9.125 -0.2914  0.0449 -0.2204
    1W        W47390  13.593   0.725   6.233  0.0358 -0.1216  0.4464
    1W        W47391   3.808  27.240   1.970 -0.0097  0.0087  0.2246
    1W        W47392  11.572  18.170   2.382  0.2375  0.0329  0.0265
    1W        W47393  13.514  25.342   0.814 -0.0587 -0.2075 -0.0891
    1W        W47394  13.803   8.106   7.487 -0.0676 -0.1046  0.0476
    1W        W47395   1.346   6.086   8.950  0.2689 -0.2118  0.1710
    1W        W47396  26.699  26.764   2.252 -0.1031 -0.0948 -0.2271
    1W        W47397   3.813   9.930   0.753 -0.0166  0.2203  0.1314
    1W        W47398   6.505  19.187   6.893 -0.3960 -0.1105  0.1066
    1W        W47399  26.160   1.099   8.008 -0.0634  0.1466  0.2148
    1W        W47400  26.732  29.166   7.623 -0.1077 -0.0213 -0.0246
    1W        W47401  15.035  19.237   8.068  0.1621 -0.3087  0.4217
    1W        W47402  24.562  11.604   1.288 -0.1249  0.0492  0.0082
    1W        W47403  24.689   4.820   6.811 -0.1973  0.1987 -0.1632
    1W        W47404  17.860  26.694   0.542  0.2284  0.0763  0.1436
    1W        W47405  12.681  22.152   1.996  0.1193  0.0853 -0.1574
    1W        W47406   6.145   8.057   7.700 -0.0354  0.4265 -0.0002
    1W        W47407  20.092  16.890   6.893 -0.2717 -0.2276 -0.0151
    1W        W47408  11.200  11.249   8.832  0.0296  0.1691 -0.1020
    1W        W47409   4.560  17.674   7.773 -0.1153  0.0405 -0.4246
    1W        W47410   8.589  24.161   1.252 -0.2522 -0.1589  0.2500
    1W        W47411  22.472  10.536   8.732 -0.0460 -0.3772  0.1728
    1W        W47412   4.229   4.009   7.843  0.1610 -0.0240 -0.2224
    1W        W47413  16.825   2.744   0.951 -0.0411  0.2461  0.0663
    1W        W47414  25.269  11.731   7.291  0.1346  0.0750  0.1496
    1W        W47415  11.079   2.167   2.426  0.1518  0.3360  0.0256
    1W        W47416  16.492  25.073   2.375  0.0692 -0.0657  0.1123
    1W        W47417  11.288  15.710   7.466  0.1350 -0.2147 -0.2229
    1W        W47418  15.955  26.021   8.015 -0.3329 -0.0778  0.0074
    1W        W47419  21.644  12.628   5.763 -0.0052  0.0951 -0.1058
    1W        W47420  28.186  20.857   7.911  0.2929 -0.1361 -0.2365
    1W        W47421  27.005  22.872   2.212  0.1906  0.2852  0.1730
    1W        W47422   9.095   6.206   6.643 -0.0288  0.3062  0.1665
    1W        W47423   2.688  17.727   0.227  0.1644 -0.0779  0.2142
    1W        W47424   6.355   7.611   7.918 -0.1448  0.6759  0.1489
    1W        W47425   1.932  24.779   0.512 -0.3982 -0.1760  0.0227
    1W        W47426  24.960  14.042   1.446 -0.0227 -0.1777 -0.3484
    1W        W47427  10.215  28.936   8.149  0.1367  0.1327  0.0743
    1W        W47428   4.968  20.124   7.525 -0.0709 -0.0612  0.0973
    1W        W47429  23.942   2.148   0.800 -0.1148  0.3090 -0.0297
    1W        W47430  20.442   0.309   9.017  0.0151 -0.1323  0.1526
    1W        W47431  13.627  22.507   2.246 -0.0781  0.2476  0.1650
    1W        W47432   6.364  21.865   8.415 -0.2237 -0.0386  0.2188
    1W        W47433  26.429  16.611   7.242 -0.0872 -0.0396 -0.2303
    1W        W47434  18.814  27.455   7.660  0.2038  0.1764 -0.1440
    1W        W47435  11.391   5.355   6.623  0.2050  0.2062  0.1481
    1W        W47436   4.275  19.619   6.955  0.0387  0.1736 -0.0482
    1W        W47437  28.629  14.372   7.248 -0.3098  0.0205 -0.3155
    1W        W47438  14.591   0.150   1.163  0.1542 -0.2582  0.0378
    1W        W47439   3.589  14.467   2.219  0.0063  0.1635 -0.0277
    1W        W47440  27.675   2.824   2.034 -0.0358  0.2241 -0.1262
    1W        W47441  12.735   5.046   7.416 -0.1099 -0.1012 -0.0429
    1W        W47442   8.353   9.110   9.182  0.1832  0.1993 -0.2246
    1W        W47443   8.009  22.920   0.385 -0.0524 -0.0253 -0.0241
    1W        W47444  13.374  16.907   0.293  0.1819 -0.0315 -0.1895
    1W        W47445   8.748  18.302   1.388  0.0832  0.0333  0.0594
    1W        W47446  27.182   3.608   2.219  0.0080 -0.0014  0.1257
    1W        W47447  18.093   1.597   0.783  0.5249  0.2630  0.1884
    1W        W47448   3.221  15.159   8.783 -0.0728  0.1078  0.1155
    1W        W47449  13.449  14.271   1.987  0.2700  0.1209  0.0667
    1W        W47450  18.524   7.916   8.005  0.1686  0.1301 -0.1148
    1W        W47451  28.123   3.974   2.335 -0.1474  0.3217  0.0184
    1W        W47452  14.853  12.326   8.660 -0.2680 -0.1093  0.0364
    1W        W47453   2.578  24.689   1.732 -0.0365 -0.1711  0.1426
    1W        W47454   3.103  29.145   7.776  0.3223 -0.2787  0.0527
    1W        W47455  25.871   8.005   7.062 -0.2195  0.1284  0.5015
    1W        W47456  13.211  25.718   3.423 -0.0201 -0.1786 -0.1210
    1W        W47457  16.581  22.039   1.224  0.0335 -0.2625 -0.0197
    1W        W47458  20.675  19.226   7.253  0.1933 -0.0918  0.0455
    1W        W47459  24.294  12.982   1.376 -0.2512 -0.1484 -0.1357
    1W        W47460  28.051  29.218   0.945  0.0226  0.0375 -0.0559
    1W        W47461  10.608  23.628   0.965 -0.2134 -0.1729 -0.2084
    1W        W47462  25.498   4.408   8.247 -0.1427  0.2590 -0.0256
    1W        W47463  18.407  27.440   0.464 -0.0345  0.1370 -0.2474
    1W        W47464   5.921  14.680   7.799  0.2712 -0.1026 -0.1060
    1W        W47465   5.814  28.487   1.209  0.1008  0.2371 -0.3714
    1W        W47466   7.187  24.839   0.461  0.1979 -0.1598 -0.0461
    1W        W47467  26.815   5.345   9.072  0.2152 -0.0691 -0.0721
    1W        W47468  26.520  24.785   8.551 -0.0168  0.1480  0.3013
    1W        W47469  26.089  26.775   1.860 -0.0760  0.2453  0.0618
    1W        W47470   3.123  11.436   1.187 -0.2424 -0.1883  0.0539
    1W        W47471   4.959  19.532   0.144  0.0058 -0.2309 -0.2934
    1W        W47472  13.684   2.737   2.252  0.3069  0.1103 -0.1122
    1W        W47473  11.869  18.278   1.623 -0.2875 -0.1606  0.4289
    1W        W47474  28.209   8.181   0.447  0.0032 -0.1937  0.2132
    1W        W47475  19.657  19.239   0.838  0.0244  0.1757  0.1376
    1W        W47476  18.432  12.767   1.303  0.2642 -0.0303  0.0098
    1W        W47477  29.214   1.499   3.943 -0.0286 -0.1896  0.2512
    1W        W47478  19.756  16.865   0.279  0.0972  0.0262  0.1775
    1W        W47479  10.307   4.703   7.232  0.0557  0.2415  0.1007
    1W        W47480  26.555  10.317   0.997  0.0151 -0.0818 -0.0190
    1W        W47481   8.732   6.365   0.899  0.1475 -0.0752 -0.1465
    1W        W47482  26.576  27.852   2.146 -0.1407 -0.4100 -0.1896
    1W        W47483  23.890   2.201   8.056 -0.1736 -0.2802  0.1875
    1W        W47484  11.762  21.165   2.425  0.1564 -0.0101 -0.0379
    1W        W47485  21.175  22.689   7.269 -0.2397  0.0502  0.1119
    1W        W47486  23.076   4.497   7.663  0.1897  0.4189 -0.1312
    1W        W47487   2.136  29.106   1.438  0.0382 -0.2247 -0.2467
    1W        W47488  28.410  15.682   7.650 -0.1480  0.0932  0.0916
    1W        W47489  12.500   7.662   1.294 -0.0074  0.3271  0.0872
    1W        W47490   0.439   4.703   1.484 -0.1085 -0.2083  0.0823
    1W        W47491  20.603  24.894   6.809  0.3562  0.3108  0.1647
    1W        W47492   8.702  25.588   6.219 -0.4774 -0.3371 -0.3242
    1W        W47493  14.402  16.896   0.030  0.0847 -0.1962 -0.0952
    1W        W47494   5.294  16.213   7.974  0.1175  0.2633 -0.0033
    1W        W47495  25.097   4.346   6.943 -0.1657  0.4460  0.1771
    1W        W47496  13.804  22.239   8.079 -0.0829 -0.0531  0.0072
    1W        W47497  30.042   8.710   2.742 -0.3124  0.2173  0.2130
    1W        W47498   4.382  10.812   2.623  0.3377 -0.0257  0.1418
    1W        W47499   2.459  15.992   7.031  0.2723  0.2345  0.3201
    1W        W47500  24.774  27.061   2.279  0.0249 -0.0662 -0.1006
    1W        W47501  27.431  26.611   1.905 -0.0344  0.1682 -0.0586
    1W        W47502   1.131  16.420   7.916 -0.0504  0.1195 -0.1566
    1W        W47503   0.560  10.811   1.183  0.0467  0.1098 -0.1023
    1W        W47504  10.503  19.251   6.860 -0.2015 -0.0245  0.1994
    1W        W47505  20.011   5.263   2.336 -0.0955  0.1318  0.0667
    1W        W47506  16.406   8.384   7.711 -0.1126 -0.0007  0.0046
    1W        W47507   6.667  14.845   9.084 -0.1577 -0.2274  0.0917
    1W        W47508   8.246  15.101   9.004 -0.0934 -0.2011  0.1477
    1W        W47509  26.788   8.894   7.725  0.0673  0.1414 -0.1382
    1W        W47510   1.601   5.831   8.535 -0.1261  0.1962  0.2245
    1W        W47511   0.060  19.922   7.690  0.2091 -0.2646  0.1811
    1W        W47512  27.222  14.280   1.608 -0.0497 -0.0913 -0.3254
    1W        W47513  28.361  11.818   7.521 -0.3428 -0.2297  0.3596
    1W        W47514  16.382  11.063   7.043  0.1942  0.0520  0.1216
    1W        W47515   4.563  13.418   7.333 -0.5228 -0.0119 -0.0955
    1W        W47516  18.200  20.225   0.677 -0.0915  0.2828 -0.0997
    1W        W47517  11.456   7.597   1.465  0.0676  0.0022 -0.0552
    1W        W47518   8.481  17.294   9.209  0.1177 -0.2285  0.0118
    1W        W47519  12.530  17.111   7.215 -0.0935  0.1230 -0.0184
    1W        W47520   7.269  17.009   7.324 -0.1360 -0.1325 -0.3660
    1W        W47521   9.088   7.247   9.047  0.1356  0.1719  0.2116
    1W        W47522  19.171   8.258   6.641 -0.1895 -0.0225  0.2187
    1W        W47523  10.384  29.219   1.756  0.4362 -0.2281 -0.3689
    1W        W47524  20.660   6.410   8.394 -0.2052  0.1119  0.2418
    1W        W47525  18.833  23.662   8.460 -0.1069 -0.0650 -0.1699
    1W        W47526  20.082  20.818   1.646  0.3623  0.0634 -0.0171
    1W        W47527   3.805  17.933   1.381  0.1621  0.1957  0.0733
    1W        W47528   7.181  23.279   7.023  0.1005 -0.0959 -0.1259
    1W        W47529  19.140  16.737   7.683  0.2770  0.1366  0.0976
    1W        W47530  25.398  16.687   5.945  0.3628  0.1978  0.1542
    1W        W47531  16.714  21.158   6.871 -0.1393  0.1504 -0.2400
    1W        W47532  24.374  21.429   9.210  0.2459 -0.0701  0.2938
    1W        W47533  26.830  18.832   0.979 -0.2097  0.4795  0.2251
    1W        W47534  16.841  18.321   2.128 -0.2548 -0.2156 -0.0450
    1W        W47535  18.522  12.029   1.153  0.1216  0.2333  0.5323
    1W        W47536  25.086   4.769   8.174  0.0437  0.1432 -0.2153
    1W        W47537  14.469  20.942   8.259 -0.3049 -0.0663 -0.0257
    1W        W47538   7.953  26.895   8.331 -0.1138 -0.0296 -0.0098
    1W        W47539   6.813  22.020   7.610  0.0589 -0.1932  0.0583
    1W        W47540  24.872   1.383   7.459  0.0259 -0.0359 -0.1769
    1W        W47541  15.765  25.993   2.477  0.1986  0.0217 -0.1110
    1W        W47542  26.712  10.831   1.365  0.0714  0.0233 -0.2135
    1W        W47543   1.448  24.223   2.300  0.1233  0.0767  0.0815
    1W        W47544  15.179   2.402   3.008  0.0151 -0.1413 -0.1038
    1W        W47545  10.048  18.202   6.974  0.0219 -0.1740  0.0542
    1W        W47546  17.942  19.059   7.373 -0.2168  0.0905 -0.2096
    1W        W47547  19.039   1.348   6.360  0.0949 -0.0919  0.1552
    1W        W47548   1.705   8.781   9.194 -0.0614  0.2606 -0.0019
    1W        W47549  14.986  20.195   9.030  0.0162  0.3219 -0.3543
    1W        W47550  23.642  26.603   7.190  0.1016  0.3426 -0.4108
    1W        W47551  28.413  21.295   7.650 -0.1147 -0.1053  0.1191
    1W        W47552  24.830  29.661   2.304 -0.2762 -0.1628 -0.1118
    1W        W47553  22.999   9.578   6.588 -0.2690 -0.1909 -0.0535
    1W        W47554   7.208  26.775   7.855  0.1133  0.1362  0.0924
    1W        W47555  14.368  11.857   8.606 -0.1039  0.0642 -0.1430
    1W        W47556  20.126  25.111   7.192  0.2177 -0.0581 -0.1540
    1W        W47557  25.695  22.487   8.287  0.4687  0.2342  0.1940
    1W        W47558  28.606  19.057   6.544  0.1861  0.0889  0.1656
    1W        W47559  16.729  15.789   7.635 -0.0897 -0.0075 -0.1793
    1W        W47560  22.103  16.946   8.006 -0.0945 -0.3155 -0.2673
    1W        W47561  21.862   2.248   0.180  0.2525 -0.0069  0.0943
    1W        W47562  21.125  11.388   0.545  0.0045 -0.0243 -0.3399
    1W        W47563  12.834  13.112   7.618  0.2405  0.1267  0.0997
    1W        W47564  13.610   1.933   8.752 -0.0188 -0.3721  0.1429
    1W        W47565  20.712  14.383   7.056 -0.1458 -0.4186  0.1157
    1W        W47566  17.131  23.371   1.300  0.0214 -0.0249 -0.2174
    1W        W47567  20.143  15.406   2.267  0.1090 -0.0648  0.3713
    1W        W47568  14.662  30.001   7.782  0.3030 -0.1880  0.2351
    1W        W47569  22.062   3.810   6.927  0.4163 -0.1545 -0.1935
    1W        W47570  19.818   0.627   8.503  0.1400 -0.0002 -0.6158
    1W        W47571  19.290  26.565   2.228 -0.2152  0.3170 -0.1524
    1W        W47572  11.472   2.357   8.028  0.0227 -0.0677  0.0201
    1W        W47573   4.360  18.309   6.652  0.1346 -0.1246 -0.1769
    1W        W47574   0.166   0.186   3.035 -0.2560  0.1334 -0.4596
    1W        W47575  15.164  10.352   1.047 -0.0140  0.0526  0.1435
    1W        W47576   3.259  18.511   7.288  0.0788  0.1101 -0.2377
    1W        W47577   6.833  24.753   0.031  0.2756 -0.2529 -0.0522
    1W        W47578  20.969  14.236   6.409 -0.0319 -0.1984  0.3152
    1W        W47579   9.251   2.679   7.903 -0.1047  0.0498 -0.0967
    1W        W47580   7.269  10.332   1.431  0.0273  0.1205  0.0322
    1W        W47581  14.083  12.080   2.717  0.1128  0.0405 -0.0766
    1W        W47582  28.766  26.009   7.323 -0.2339 -0.1552 -0.0127
    1W        W47583  10.183   0.127   0.085 -0.1867 -0.0767 -0.1024
    1W        W47584   6.219   7.927   1.998  0.0300  0.2322  0.2294
    1W        W47585  12.248  27.906   6.817 -0.1518  0.1465 -0.0270
    1W        W47586  23.435  23.585   0.456  0.0819  0.0937 -0.1355
    1W        W47587  15.040   4.828   7.209  0.0800  0.1966 -0.3523
    1W        W47588  21.152  11.838   6.776 -0.0353 -0.1436 -0.0499
    1W        W47589   4.878  25.702   6.921 -0.0740  0.3031  0.0913
    1W        W47590   8.034  28.346   0.240 -0.0571  0.0859 -0.2067
    1W        W47591  23.196   4.975   6.137  0.0463 -0.0610  0.1055
    1W        W47592  28.675  10.336   8.255  0.0043 -0.2158  0.1015
    1W        W47593   0.343  27.210   2.672  0.0930  0.0378 -0.2658
    1W        W47594  16.154  25.527   8.120  0.0716 -0.3255 -0.1020
    1W        W47595  26.676  13.499   2.071 -0.0533 -0.0205  0.0734
    1W        W47596  25.022  24.513   7.303 -0.1261 -0.1752 -0.0207
    1W        W47597   5.276  26.979   1.340  0.2127 -0.1529  0.1309
    1W        W47598   8.203  18.167   7.021  0.1479 -0.1669 -0.2684
    1W        W47599   3.709   8.812   1.074 -0.0713 -0.0217 -0.0055
    1W        W47600  24.617  19.075   7.166  0.3130  0.2996 -0.1420
    1W        W47601  16.197   8.897   6.762  0.1024  0.0000 -0.1845
    1W        W47602   2.746  10.551   7.715  0.0750 -0.2111 -0.4765
    1W        W47603  20.571   6.270   1.771 -0.1333 -0.1104 -0.0054
    1W        W47604   8.901   4.754   0.028  0.0308 -0.2827  0.1497
    1W        W47605  15.060  25.725   0.995 -0.3094  0.2269 -0.0543
    1W        W47606   5.482  11.801   9.149  0.0548  0.2971  0.1146
    1W        W47607  30.137  22.443   0.631  0.1225 -0.2638  0.2370
    1W        W47608  21.521   8.136   9.039 -0.0917 -0.1974 -0.1643
    1W        W47609  16.863  13.145   7.232 -0.2105  0.0607 -0.2485
    1W        W47610  24.343  14.294   1.698  0.1668 -0.0270 -0.0833
    1W        W47611   3.947  28.904   1.199 -0.1232  0.0520  0.0089
    1W        W47612   3.283  27.600   8.633 -0.0375 -0.0129  0.0706
    1W        W47613   8.803  24.458   0.860  0.0772 -0.0130  0.1101
    1W        W47614  27.619   5.544   8.387  0.3198  0.1201 -0.2841
    1W        W47615  13.150   1.653   7.224  0.1779  0.0693 -0.2573
    1W        W47616   3.616   2.003   8.622  0.0129 -0.2287 -0.0669
    1W        W47617  22.661  20.600   6.070  0.2048 -0.1143 -0.0840
    1W        W47618  17.464  12.027   2.736 -0.3169 -0.1291 -0.0783
    1W        W47619   7.649  18.792   5.997 -0.1938 -0.1686  0.1247
    1W        W47620  21.685  19.646   0.890 -0.1749 -0.0802  0.1398
    1W        W47621   0.906  24.396   2.266 -0.0468  0.2643  0.0132
    1W        W47622  15.609  13.864   1.836 -0.1901  0.1086  0.1663
    1W        W47623  20.287   7.950   6.497 -0.1170 -0.0297  0.1916
    1W        W47624  21.821  22.565   8.448  0.1745 -0.0442  0.1668
    1W        W47625  16.931  12.067   9.019 -0.1448 -0.1606 -0.0433
    1W        W47626  12.016  20.297   6.894  0.0941  0.1000  0.1357
    1W        W47627   3.874   2.642   0.694  0.1080  0.0302 -0.1106
    1W        W47628  23.773   4.758   8.738 -0.1110 -0.0432 -0.1104
    1W        W47629  24.132  15.151   7.745 -0.3538  0.0568  0.0997
    1W        W47630  27.539  21.458   0.695 -0.1347  0.0403 -0.0409
    1W        W47631  12.421  12.905   1.558  0.1641 -0.3410  0.3195
    1W        W47632  18.238  10.880   7.229  0.3485  0.2377 -0.0173
    1W        W47633  21.666   0.531   9.187 -0.0525 -0.1211 -0.1731
    1W        W47634  24.242  29.713   7.410  0.0910  0.0583 -0.2721
    1W        W47635  10.104   8.825   8.995 -0.0794 -0.0235  0.1062
    1W        W47636  16.912  18.326   0.735 -0.1994 -0.0240  0.3670
    1W        W47637  26.120  14.475   0.146  0.2739 -0.1502 -0.2927
    1W        W47638   9.259   8.869   7.381 -0.0330  0.1241  0.0128
    1W        W47639  15.590  26.289   8.322 -0.3577  0.2167 -0.0462
    1W        W47640  15.796   8.260   0.784  0.0721  0.1853  0.1093
    1W        W47641   8.006   0.793   8.029  0.0329 -0.2121 -0.5347
    1W        W47642   0.026  21.566   0.110 -0.5771 -0.0794  0.1967
    1W        W47643   0.653   9.244   6.420 -0.1302  0.3293  0.3094
    1W        W47644  16.461  22.327   5.961  0.4952  0.2509 -0.1353
    1W        W47645   5.664   3.309   3.027 -0.0318  0.2547  0.1286
    1W        W47646  28.612  16.864   7.597  0.0163  0.1361 -0.1698
    1W        W47647   7.651   3.773   1.967  0.2616  0.0597 -0.0571
    1W        W47648   3.643  25.298   7.149  0.2605 -0.1653  0.1415
    1W        W47649  27.113   9.687   3.062  0.2470  0.2819 -0.2445
    1W        W47650  22.632   0.514   2.613  0.1250  0.1608 -0.1376
    1W        W47651  19.707  16.813   1.455  0.1014 -0.2518  0.1719
    1W        W47652  27.741   9.207   2.479 -0.0248  0.1040  0.1974
    1W        W47653   6.794  26.025   6.865  0.0895 -0.0770 -0.1759
    1W        W47654   0.019   0.033   6.982  0.0956  0.0858 -0.2748
    1W        W47655  22.414   0.245   1.201 -0.1948  0.0390 -0.2193
    1W        W47656  29.967  22.877   0.473  0.1215 -0.1661 -0.1033
    1W        W47657   3.624  13.584   0.182  0.0951 -0.0698 -0.2558
    1W        W47658   1.739  10.884   7.950  0.1683 -0.1371 -0.0634
    1W        W47659  13.275   1.805   0.231 -0.2541 -0.1230 -0.1582
    1W        W47660  16.830   6.259   8.198  0.0854  0.0392  0.1231
    1W        W47661   4.767  11.210   8.416 -0.2573 -0.2150 -0.1575
    1W        W47662   5.994  29.776   0.021 -0.0303  0.0102 -0.1023
    1W        W47663  20.482  29.501   2.252  0.0307  0.2073 -0.1312
    1W        W47664  30.109   0.065   9.231 -0.0123 -0.0033 -0.0002
    1W        W47665  14.596  14.756   2.084 -0.0621  0.0739 -0.0525
    1W        W47666   8.566   8.589   2.069 -0.0444 -0.0828 -0.0211
    1W        W47667   4.430   8.416   7.394 -0.0429 -0.0128  0.0213
    1W        W47668   5.560  16.329   8.871 -0.2452  0.0290 -0.1578
    1W        W47669  25.321  20.622   0.543 -0.1800  0.0523 -0.2193
    1W        W47670   1.416  14.981   6.813  0.1239 -0.3420  0.1900
    1W        W47671  18.521  13.777   8.817 -0.0438  0.1583 -0.1334
    1W        W47672  10.850   0.056   1.319 -0.4038 -0.1557 -0.3136
    1W        W47673  22.317  28.399   3.152  0.0800  0.0299 -0.0457
    1W        W47674   0.754  29.761   1.826  0.0606 -0.1504 -0.3993
    1W        W47675  15.309   4.629   0.702 -0.0910  0.3435 -0.1889
    1W        W47676  10.624   4.383   6.849 -0.1381  0.2822  0.2328
    1W        W47677  10.965  21.686   0.447 -0.0488 -0.2544  0.1947
    1W        W47678  11.827  29.516   7.609 -0.1752 -0.1609 -0.0634
    1W        W47679   3.180   6.462   9.142 -0.3297 -0.1399  0.0051
    1W        W47680  14.875   0.534   1.408 -0.2760  0.2450 -0.1038
    1W        W47681   1.637   2.290   0.814 -0.1229  0.1096 -0.1655
    1W        W47682  14.337  15.257   1.937 -0.0103  0.0332 -0.0332
    1W        W47683  13.575  28.668   0.544  0.1663 -0.0543 -0.3032
    1W        W47684   3.059  14.516   7.145 -0.3451 -0.0065  0.1276
    1W        W47685  29.907   6.554   7.528 -0.0398 -0.1683  0.2061
    1W        W47686  10.974   9.888   1.378 -0.0653  0.2047 -0.2220
    1W        W47687  24.496  10.396   5.772  0.1278 -0.1176  0.0990
    1W        W47688   0.733  21.285   7.639 -0.2176  0.1844 -0.0697
    1W        W47689  28.203  14.893   7.042  0.1676 -0.1898 -0.1648
    1W        W47690   9.737  13.490   0.675 -0.1489  0.3465  0.0088
    1W        W47691  24.209  30.069   7.086 -0.2678 -0.2380 -0.1791
    1W        W47692   0.683   2.472   1.899  0.2503 -0.0855 -0.0192
    1W        W47693   1.274  27.456   8.759 -0.2606  0.1958  0.2225
    1W        W47694   9.800   0.103   0.547  0.2036 -0.2286  0.0661
    1W        W47695  13.251   0.677   8.397 -0.1824  0.3473 -0.1412
    1W        W47696   9.642  25.329   6.925  0.0139  0.1243 -0.1128
    1W        W47697  24.969  15.512   1.096  0.0738 -0.1342  0.0350
    1W        W47698  11.150  26.806   2.297 -0.0160 -0.0375  0.1943
    1W        W47699  10.934  29.756   8.079  0.0406 -0.1233  0.0944
    1W        W47700  12.662  17.616   8.255 -0.0404 -0.1918 -0.1636
    1W        W47701   6.905  17.752   6.728 -0.3946 -0.1441  0.2972
    1W        W47702  13.677  13.940   7.544  0.1251  0.0715  0.0401
    1W        W47703   2.651  21.344   0.460  0.4249 -0.0651  0.0285
    1W        W47704   4.707  27.047   7.168  0.0675  0.2771 -0.4939
    1W        W47705   4.049  10.247   8.935 -0.2496 -0.1028  0.1232
    1W        W47706   0.069  20.991   1.497  0.0411  0.1665  0.0624
    1W        W47707   0.434   0.345   1.769  0.0528 -0.1249 -0.1017
    1W        W47708   3.900   4.706   7.095  0.3527 -0.2547 -0.0944
    1W        W47709  15.094  25.181   6.721 -0.1790  0.0355 -0.0397
    1W        W47710  25.175   5.021   0.128  0.3422 -0.2629  0.0101
    1W        W47711   3.943   9.063   0.620 -0.2936  0.3387  0.3641
    1W        W47712  18.776   0.238   0.963  0.0195  0.0454  0.0684
    1W        W47713   8.426  12.590   0.107  0.1848  0.0342 -0.0516
    1W        W47714  23.252  26.346   1.238 -0.2228 -0.0786 -0.0690
    1W        W47715   5.083  28.652   1.776 -0.0685 -0.2313 -0.1507
    1W        W47716  10.302  15.841   0.648  0.0135 -0.0009 -0.0142
    1W        W47717  25.769   4.717   0.495  0.0080 -0.1431  0.0622
    1W        W47718  11.115  18.022   1.993 -0.0326  0.1679  0.0532
    1W        W47719  27.422  30.252   8.075 -0.0783  0.1942  0.1912
    1W        W47720  19.189  12.850   1.848 -0.0292 -0.1135  0.0136
    1W        W47721   9.988  24.725   8.122  0.0854 -0.1041 -0.1120
    1W        W47722  17.319  29.955   2.513  0.3592 -0.0568 -0.0590
    1W        W47723  30.296  26.524   0.662 -0.0841 -0.1493  0.1295
    1W        W47724   6.062  21.510   1.251 -0.0356  0.0869  0.0069
    1W        W47725   2.384   8.214   7.186  0.1125  0.2765 -0.0732
    1W        W47726  23.372  10.827   7.287 -0.1859 -0.3288 -0.4232
    1W        W47727  19.970  18.166   6.321  0.0948 -0.1188  0.0336
    1W        W47728  12.120  22.027   0.028 -0.0052  0.2233  0.3098
    1W        W47729  11.165   2.196   2.922  0.1249 -0.1548 -0.1388
    1W        W47730   4.438   0.951   2.354  0.0140  0.2190  0.0694
    1W        W47731  24.689  23.811   6.920  0.3394  0.1831  0.0313
    1W        W47732  22.410  18.086   1.406  0.1940  0.0027 -0.1236
    1W        W47733   1.429  19.122   0.982  0.0712  0.0347  0.0284
    1W        W47734  15.153   7.066   8.444 -0.0454 -0.3217  0.1666
    1W        W47735  10.831  22.831   6.903  0.1779 -0.4121  0.0689
    1W        W47736  13.989  14.982   2.164  0.0399  0.3805  0.0623
    1W        W47737  11.143  15.756   8.029  0.0079 -0.0742 -0.3898
    1W        W47738   2.069   8.396   0.658 -0.1355  0.0479 -0.0397
    1W        W47739  21.730  10.531   8.821 -0.0118  0.1549 -0.0654
    1W        W47740  18.431   1.858   1.179  0.0228  0.4800 -0.0898
    1W        W47741   6.197  12.481   0.134  0.1005 -0.1153 -0.3071
    1W        W47742   9.344  20.380   0.949 -0.2634  0.0035  0.0545
    1W        W47743  10.664  15.529   0.820  0.1119 -0.1560  0.3223
    1W        W47744   9.028  16.827   0.143 -0.0550  0.0042  0.0106
    1W        W47745  16.571   7.596   5.996 -0.2515 -0.1290 -0.2613
    1W        W47746  22.534  21.379   1.165 -0.0803 -0.1194 -0.1119
    1W        W47747  16.025  18.073   6.581  0.1611  0.1293  0.1174
    1W        W47748   7.787  28.528   7.662 -0.0955  0.0026  0.5059
    1W        W47749   0.065  16.850   2.063 -0.3001 -0.3380 -0.0555
    1W        W47750  21.007  30.002   1.744 -0.2616 -0.0163  0.1297
    1W        W47751  28.898  29.104   3.954 -0.4580 -0.3240  0.3004
    1W        W47752   3.078  25.631   1.566  0.1254  0.3275  0.0624
    1W        W47753   1.003   1.876   7.739  0.0698  0.0762  0.2616
    1W        W47754  24.276  29.129   6.975  0.1258  0.0709  0.2353
    1W        W47755  16.860   2.175   7.463 -0.0154  0.0619  0.0083
    1W        W47756  25.407  22.766   1.597 -0.0303 -0.0446 -0.1335
    1W        W47757  11.242   2.467   7.611  0.1299 -0.0297  0.1663
    1W        W47758   8.647   4.043   9.206 -0.1976 -0.1870 -0.2390
    1W        W47759  18.393  28.978   6.596  0.0947  0.2090 -0.1463
    1W        W47760  20.396  26.146   8.364  0.0600  0.1676 -0.3588
    1W        W47761   6.518  29.057   7.519  0.4185 -0.0891 -0.0410
    1W        W47762   6.826  21.508   6.010  0.0714  0.2555  0.1862
    1W        W47763  29.888   8.722   3.226  0.0571 -0.3982 -0.1550
    1W        W47764  19.323  17.354   2.321 -0.0854  0.0913  0.0800
    1W        W47765   8.058  12.928   0.224  0.3362  0.1654 -0.2537
    1W        W47766  20.398  10.524   8.896 -0.0456  0.1982 -0.0348
    1W        W47767   2.035   0.262   6.920 -0.0493 -0.0423 -0.0986
    1W        W47768  21.118  13.036   7.612  0.1205  0.2327 -0.1066
    1W        W47769  26.145   7.767   7.415  0.0134  0.2083 -0.1381
    1W        W47770  26.241   8.723   5.841  0.0213 -0.3049 -0.0519
    1W        W47771  11.967   1.981   2.465  0.0693  0.0192  0.0278
    1W        W47772  24.969  21.772   7.068 -0.1148  0.2016  0.1622
    1W        W47773   8.432  23.227   1.242 -0.1155 -0.0150 -0.0388
    1W        W47774  18.115  15.761   7.427 -0.2149  0.0548  0.0928
    1W        W47775  29.138  12.068   6.218  0.1866 -0.3735  0.2381
    1W        W47776  28.984  16.693   7.219  0.2225 -0.0825 -0.1418
    1W        W47777  28.124  14.722   7.992  0.2920  0.1450 -0.3577
    1W        W47778  28.360   9.704   8.929  0.0165  0.0045 -0.4001
    1W        W47779  19.765  25.666   8.795 -0.0743 -0.2708 -0.1173
    1W        W47780  25.336  28.501   0.337 -0.1680  0.0215  0.3175
    1W        W47781   9.993  19.921   2.701  0.2259  0.3132 -0.1936
    1W        W47782  18.922   7.467   7.687 -0.3338  0.0072  0.1530
    1W        W47783   2.807  15.076   2.232 -0.3363 -0.2190 -0.1517
    1W        W47784  28.697  28.475   3.302 -0.0672  0.1886 -0.1460
    1W        W47785  17.140  27.814   0.034  0.1249  0.0280 -0.0308
    1W        W47786  29.677  11.521   1.770  0.0795 -0.1364  0.1672
    1W        W47787  28.658   1.080   3.581  0.2633  0.1649 -0.0293
    1W        W47788  27.340   4.919   3.219 -0.1428  0.1169 -0.1599
    1W        W47789  16.156  18.277   7.072  0.4952 -0.0887  0.0070
    1W        W47790  11.424  29.608   2.138  0.0470  0.1087 -0.1477
    1W        W47791  20.113  15.273   1.801 -0.0313 -0.1385  0.3058
    1W        W47792  29.444  21.769   7.090 -0.1142  0.3739 -0.3305
    1W        W47793   2.659  14.920   7.298 -0.0138  0.0575 -0.1192
    1W        W47794  14.297  15.336   8.956  0.1754  0.1175  0.0974
    1W        W47795  16.215  21.920   6.737 -0.0563 -0.0374  0.2152
    1W        W47796   6.017   4.411   3.117  0.1016  0.0975 -0.0301
    1W        W47797   5.334  21.241   8.896  0.2780 -0.2196 -0.1777
    1W        W47798   5.119   1.465   3.818 -0.1540 -0.0406  0.1376
    1W        W47799  14.768  19.179   6.220  0.1588 -0.0408 -0.0900
    1W        W47800  14.144  24.527   1.497  0.1258 -0.1507 -0.0491
    1W        W47801  12.899  24.735   7.008 -0.1055 -0.2761 -0.1671
    1W        W47802   1.400  24.013   1.005 -0.2527 -0.1316  0.1564
    1W        W47803   6.522  10.232   1.774  0.0824  0.0915  0.1579
    1W        W47804   3.503  29.133   2.905 -0.1428 -0.1956  0.2986
    1W        W47805   5.460  22.301   7.574  0.0091 -0.1756 -0.1459
    1W        W47806  22.361   2.352   2.920 -0.0032  0.0380  0.1279
    1W        W47807   4.928   6.808   1.102 -0.0839  0.3668  0.3432
    1W        W47808  14.434  23.175   0.210 -0.1323 -0.2648  0.1134
    1W        W47809  14.327   1.434   0.356 -0.4956  0.1432  0.0619
    1W        W47810   4.498  15.638   0.070  0.1730 -0.0476  0.0614
    1W        W47811   0.835   8.908   7.646 -0.0991  0.0787  0.0345
    1W        W47812  15.110  12.752   7.712 -0.0618 -0.0501  0.0992
    1W        W47813  28.447  12.719   6.444 -0.1723 -0.0824 -0.0892
    1W        W47814  30.255   3.752   8.785 -0.0658 -0.2438  0.3074
    1W        W47815   8.478  11.793   1.051  0.0404 -0.0751  0.2330
    1W        W47816  14.151   5.348   6.615  0.1045  0.2654  0.1134
    1W        W47817  24.021   5.254   8.345  0.1298 -0.0088  0.0340
    1W        W47818  15.211  10.403   0.215  0.2073 -0.3632  0.0789
    1W        W47819  16.109  23.741   8.875 -0.1384 -0.0202  0.1898
    1W        W47820  23.581   5.447   8.051  0.1237 -0.0687  0.0348
    1W        W47821  19.092  17.511   6.097  0.0759  0.1231  0.1587
    1W        W47822  22.299  22.295   6.752 -0.1482 -0.2694  0.0870
    1W        W47823   2.441  28.390   8.804  0.1832  0.2799  0.1769
    1W        W47824  16.022   4.476   2.408 -0.2213 -0.2662  0.1218
    1W        W47825  17.875  15.297   6.297 -0.2038  0.2660 -0.0995
    1W        W47826  14.624   5.534   6.639  0.1603 -0.0689  0.0855
    1W        W47827   9.687  20.242   1.280  0.0672 -0.2632  0.0680
    1W        W47828  20.694   7.352   1.102 -0.0741 -0.1768 -0.0948
    1W        W47829  10.492   6.657   7.045 -0.0279 -0.1149  0.3118
    1W        W47830  27.343  19.644   8.004 -0.2390 -0.3448  0.0938
    1W        W47831  30.174   8.863   1.806  0.3264  0.2298 -0.0899
    1W        W47832  14.373  16.455   2.618  0.1437  0.1589  0.4656
    1W        W47833   4.773  11.472   8.810  0.2195  0.0916 -0.2499
    1W        W47834   9.569  16.576   2.209  0.1241  0.0669  0.1832
    1W        W47835  10.148  15.361   0.527  0.0626  0.0633  0.1003
    1W        W47836  21.782   6.303   8.590  0.0025  0.2211 -0.1469
    1W        W47837  27.173   6.705   9.031  0.1044  0.2570  0.3060
    1W        W47838  11.391  20.532   7.201 -0.3071 -0.2281  0.0994
    1W        W47839   4.218   5.981   2.430  0.0903  0.0737  0.0162
    1W        W47840   5.736   3.817   9.229 -0.0460 -0.0232 -0.0171
    1W        W47841  21.795  10.044   0.270 -0.0639  0.0230  0.0795
    1W        W47842  10.019  28.340   7.412 -0.4331  0.1932  0.2499
    1W        W47843  29.350  27.446   2.588  0.0786  0.2542 -0.1012
    1W        W47844  28.841   7.446   1.479  0.0773  0.1754 -0.1748
    1W        W47845   1.608  28.883   0.424 -0.1444 -0.0996  0.0916
    1W        W47846  27.148  21.050   6.930 -0.0480 -0.1083  0.0431
    1W        W47847  22.647   0.167   7.516 -0.1025 -0.0729  0.2065
    1W        W47848  19.004  12.444   0.364  0.2321 -0.0071 -0.1617
    1W        W47849  26.690   1.803   1.921  0.1818  0.1271  0.0156
    1W        W47850   0.386  14.160   1.465  0.1212 -0.2438  0.2488
    1W        W47851   8.033  24.711   0.672 -0.0860  0.0823 -0.1162
    1W        W47852  13.231  27.569   7.705  0.1447 -0.1540 -0.2335
    1W        W47853   2.768  24.270   0.453 -0.0281  0.0738  0.1207
    1W        W47854   2.312  12.703   1.815  0.1588 -0.0964 -0.0955
    1W        W47855  23.011   4.797   0.887 -0.1618 -0.1412 -0.1407
    1W        W47856  18.623   6.627   7.941 -0.0142  0.2107 -0.2216
    1W        W47857  13.870   3.943   0.638  0.0446 -0.2264 -0.1134
    1W        W47858   7.908  26.828   0.846 -0.1328  0.1297  0.0326
    1W        W47859  21.177  23.602   9.137  0.1191  0.1848 -0.0770
    1W        W47860  29.020   6.975   0.566 -0.1709 -0.1032 -0.4943
    1W        W47861  22.736   7.344   0.922 -0.1827  0.1481  0.1993
    1W        W47862   1.184  15.315   0.449 -0.2076 -0.0619 -0.0875
    1W        W47863  24.541   7.910   0.298  0.0065  0.0849 -0.0880
    1W        W47864  14.897  22.108   9.241 -0.0388  0.0280  0.0837
    1W        W47865  18.806  21.595   1.562  0.1816  0.2056 -0.0611
    1W        W47866  29.807  13.007   1.125  0.3317 -0.2444 -0.1880
    1W        W47867   7.432   5.255   7.124  0.0761  0.1235 -0.2371
    1W        W47868   2.532  29.198   3.100  0.0693  0.2825 -0.0283
    1W        W47869   5.005  14.951   8.250  0.2256  0.0419 -0.3501
    1W        W47870  21.173  16.057   6.437 -0.3888  0.0208 -0.1465
    1W        W47871  23.875  17.522   5.531 -0.3219  0.1829 -0.3930
    1W        W47872  16.583   6.055   6.596  0.0866 -0.0860 -0.1494
    1W        W47873  19.897  12.734   8.730 -0.3816  0.0187  0.1150
    1W        W47874   1.996  22.343   0.857  0.2128 -0.2014  0.3180
    1W        W47875  17.036  19.085   0.336  0.2097  0.1941 -0.3106
    1W        W47876  26.421   9.278   2.475  0.0945  0.2613  0.1405
    1W        W47877   3.631  14.190   1.801 -0.3697 -0.1054 -0.2037
    1W        W47878  25.620  10.616   9.179  0.2274 -0.4608  0.2677
    1W        W47879  27.449   7.002   2.496 -0.1156 -0.2955  0.0042
    1W        W47880  28.650   7.609   8.935  0.1153  0.1947  0.2126
    1W        W47881   3.362   7.169   8.984  0.1278  0.0277 -0.2206
    1W        W47882   7.155  19.029   1.040  0.3372 -0.3100  0.0702
    1W        W47883  16.581  19.777   1.970  0.0124  0.2113  0.1536
    1W        W47884  27.644   9.043   8.028 -0.1128  0.0774 -0.2710
    1W        W47885  25.228  17.444   6.947 -0.2570  0.0759 -0.4527
    1W        W47886  24.108  16.923   7.663  0.0859 -0.2397  0.1553
    1W        W47887  14.081  12.794   2.309 -0.0926 -0.2219  0.0115
    1W        W47888  15.372  27.694   2.367  0.1201 -0.1929 -0.0510
    1W        W47889   7.911  16.239   0.067 -0.1683  0.1084 -0.1522
    1W        W47890  15.466  14.391   8.092 -0.1757 -0.3123  0.1848
    1W        W47891  23.071  14.133   1.793 -0.0527 -0.2798  0.0333
    1W        W47892  13.922  20.183   8.294 -0.1484 -0.0988  0.0597
    1W        W47893  14.450   4.298   2.075 -0.1042 -0.1139  0.1054
    1W        W47894  23.979  11.731   6.764 -0.0272 -0.4306  0.3761
    1W        W47895   5.432   0.866   1.130 -0.0861  0.0823 -0.2067
    1W        W47896  28.980  26.757   1.536  0.2294 -0.1657  0.0497
    1W        W47897  26.759  14.574   7.519 -0.0028 -0.0500 -0.0684
    1W        W47898  20.473  24.271   0.423 -0.0412 -0.1458 -0.0966
    1W        W47899   7.250   7.031   0.404  0.0009  0.0150  0.0355
    1W        W47900  28.384  17.140   7.280 -0.0931 -0.1226 -0.1731
    1W        W47901  16.206   0.283   1.256  0.0146  0.0620  0.1099
    1W        W47902   3.783  10.777   0.559  0.1315  0.0532  0.0849
    1W        W47903  21.824  18.171   5.967 -0.2045  0.1984 -0.0308
    1W        W47904   8.415  14.258   2.166  0.2379 -0.1140 -0.0320
    1W        W47905   3.447   5.852   8.552  0.2071 -0.4054 -0.1499
    1W        W47906   8.819  10.592   0.098  0.1244  0.0531 -0.1052
    1W        W47907   2.007  24.660   7.569 -0.0899  0.1118  0.0872
    1W        W47908  17.516  25.943   7.016  0.1831  0.0523 -0.2209
    1W        W47909  12.543  17.252   1.692  0.1281 -0.0011  0.0814
    1W        W47910   4.512   6.895   7.285  0.1647  0.3187  0.1593
    1W        W47911  10.892  13.890   0.967 -0.3052  0.1205 -0.1862
    1W        W47912   2.861  12.702   7.254 -0.1791 -0.0541  0.2767
    1W        W47913  26.706  12.593   8.799  0.1828  0.0944 -0.2937
    1W        W47914  19.835   6.787   2.266 -0.1745 -0.0917  0.2509
    1W        W47915  13.878  15.358   0.441  0.1921 -0.0688  0.2636
    1W        W47916  13.291  26.344   7.722  0.3301 -0.1099  0.2507
    1W        W47917  12.089  21.267   7.396  0.1937 -0.1629 -0.0887
    1W        W47918   5.335  21.370   8.424 -0.0697 -0.2517 -0.0013
    1W        W47919  10.479  27.148   0.839  0.3210 -0.1430  0.1292
    1W        W47920  10.654  22.688   0.231 -0.0495  0.0388 -0.0217
    1W        W47921   1.134  24.186   6.974  0.2193 -0.0499 -0.2993
    1W        W47922   1.218  14.678   1.790 -0.1366 -0.3117  0.1403
    1W        W47923  26.501  11.300   6.239  0.1959  0.2299 -0.0797
    1W        W47924  21.225  15.070   0.392  0.0584  0.1182  0.0029
    1W        W47925  15.751  18.140   8.103  0.3162 -0.3402 -0.2351
    1W        W47926  27.413  11.258   7.367 -0.0282 -0.1841 -0.0857
    1W        W47927  22.624  25.987   6.728 -0.2471 -0.0118 -0.0061
    1W        W47928  16.861  27.950   7.622 -0.0560  0.1838  0.2667
    1W        W47929   8.841  29.231   7.264 -0.2658 -0.0395  0.1975
    1W        W47930   2.006   2.461   7.515  0.0469  0.1338 -0.2084
    1W        W47931  18.807   6.312   0.404 -0.1057  0.2434 -0.4291
    1W        W47932   4.461  29.269   7.879  0.0130 -0.0757 -0.0911
    1W        W47933  12.330  22.493   7.216 -0.2984 -0.0339  0.0662
    1W        W47934  19.703   4.155   6.779 -0.0406 -0.2766  0.0932
    1W        W47935  12.284   9.261   1.350  0.1311  0.1339  0.1433
    1W        W47936  15.485  19.185   9.045 -0.2365 -0.2841 -0.1340
    1W        W47937  27.339  19.341   7.119 -0.0358  0.2526  0.1663
    1W        W47938   1.469  16.236   1.138  0.0298 -0.1299  0.1596
    1W        W47939  25.065  19.313   0.879 -0.1585  0.0160  0.0140
    1W        W47940   2.834  23.639   2.093 -0.1486  0.0953 -0.1883
    1W        W47941  29.463  10.060   8.607 -0.0459  0.0525  0.0458
    1W        W47942  12.545  27.698   0.683 -0.0563 -0.1394  0.3063
    1W        W47943  11.452  11.102   7.469  0.1888  0.4041 -0.1556
    1W        W47944   9.804   8.936   2.290 -0.0812  0.0753  0.0410
    1W        W47945  11.386   9.722   8.297 -0.0838 -0.2611 -0.0125
    1W        W47946  26.026   1.922   8.994  0.1634 -0.2090 -0.1743
    1W        W47947  26.281  24.107   0.544  0.0819 -0.1741  0.0256
    1W        W47948  30.203   2.833   8.527  0.1303 -0.0016  0.1233
    1W        W47949  22.182  24.806   8.151 -0.3240 -0.2584  0.2455
    1W        W47950  23.660  14.495   8.665 -0.2707  0.3234 -0.0729
    1W        W47951  25.608   3.583   1.543 -0.0951  0.2932 -0.0215
    1W        W47952   9.473  10.977   1.215  0.1242 -0.0059  0.0391
    1W        W47953  13.449  20.949   0.908 -0.0948 -0.0636 -0.0834
    1W        W47954  22.899   7.964   5.673 -0.4518 -0.1437 -0.1305
    1W        W47955   9.725  29.706   8.606 -0.0863  0.0311 -0.0593
    1W        W47956  14.854   8.299   0.357 -0.2809 -0.1599 -0.0850
    1W        W47957  15.915  15.172   8.927 -0.1467  0.0692  0.4753
    1W        W47958   9.844  19.468   0.196  0.0491 -0.1261  0.0613
    1W        W47959  22.525  28.478   1.574 -0.2248 -0.1328 -0.1643
    1W        W47960  19.691  14.809   7.999  0.3173  0.0462  0.3727
    1W        W47961  26.180  12.062   8.281 -0.1208 -0.0406 -0.1083
    1W        W47962  24.091   0.568   7.639 -0.0889 -0.1120  0.1290
    1W        W47963   7.796   3.396   3.691  0.0746  0.0120  0.2520
    1W        W47964   0.458  23.064   7.692  0.1674 -0.0793  0.0034
    1W        W47965   2.802   4.561   0.591 -0.1552  0.1582 -0.1329
    1W        W47966   4.924  13.811   2.029 -0.1209  0.1151 -0.3279
    1W        W47967  28.496  12.947   0.244  0.1174  0.0209 -0.1764
    1W        W47968   6.664  23.782   1.992  0.2906  0.1066 -0.2171
    1W        W47969   6.981  15.343   0.825  0.2089  0.3027  0.0660
    1W        W47970  25.463  14.464   2.277  0.0271  0.1019  0.1057
    1W        W47971   1.944  21.303   0.835 -0.4102  0.0637 -0.3128
    1W        W47972  29.064  27.062   0.517 -0.2523 -0.3845 -0.1732
    1W        W47973  15.413  24.439   2.023 -0.0047  0.1397  0.0348
    1W        W47974   9.111  22.242   2.115 -0.4277 -0.1921  0.0795
    1W        W47975  23.491  16.685   1.373 -0.1381 -0.0314  0.1358
    1W        W47976  27.751  10.350   0.387  0.0968 -0.1822 -0.0199
    1W        W47977  17.979  26.329   1.852  0.0731  0.0689  0.0330
    1W        W47978  14.038  16.154   6.720  0.1443  0.0357  0.0236
    1W        W47979   1.927  18.849   0.333 -0.1335 -0.0071 -0.3415
    1W        W47980  27.565  22.946   9.018  0.0179  0.0474 -0.1290
    1W        W47981  24.288  19.115   1.003 -0.4603  0.1507  0.1518
    1W        W47982  14.965   5.531   1.479 -0.3035 -0.0778 -0.0064
    1W        W47983  24.157   5.647   1.448 -0.3769  0.0300 -0.1093
    1W        W47984  11.392  26.432   1.463 -0.0034  0.0967  0.1420
    1W        W47985  17.867  23.876   7.808 -0.1514 -0.2051 -0.3535
    1W        W47986   2.620  21.982   0.525 -0.3006  0.2147  0.0781
    1W        W47987  14.081  23.890   1.095 -0.0108  0.1369  0.0295
    1W        W47988  25.022  26.533   2.005 -0.2334  0.0943  0.0373
    1W        W47989   2.764  18.267   8.107  0.3008  0.1322  0.3017
    1W        W47990   4.752   7.053   8.578  0.0844 -0.1168 -0.1621
    1W        W47991  17.995  20.842   6.621 -0.1488  0.3271 -0.0171
    1W        W47992  21.756  13.231   8.218  0.0477 -0.0678  0.2231
    1W        W47993   2.431  10.381   8.212  0.2009  0.1729  0.1229
    1W        W47994  20.952   1.577   8.639 -0.0998 -0.1878  0.1117
    1W        W47995  24.137  28.047   6.526  0.0670 -0.0136  0.2843
    1W        W47996  16.813  21.570   0.960 -0.2291  0.1517  0.4282
    1W        W47997  20.076  26.782   2.640  0.0624  0.1094  0.0132
    1W        W47998   0.523   9.915   1.138  0.2334 -0.1064 -0.0007
    1W        W47999   9.152   9.424   3.428  0.3314  0.0939 -0.0234
    1W        W48000  10.213   3.481   2.052  0.0057 -0.0121  0.0359
    1W        W48001  23.125  23.220   2.774 -0.1657  0.2137 -0.0201
    1W        W48002  23.328  21.518   1.321 -0.0316  0.1128  0.0286
    1W        W48003  10.518  24.774   1.158  0.1661  0.1045 -0.1902
    1W        W48004  20.063  25.541   1.517  0.0411 -0.1049 -0.1273
    1W        W48005  29.394  27.523   8.560 -0.1831 -0.0388 -0.2117
    1W        W48006  17.496  22.526   5.871 -0.0374  0.0154 -0.0789
    1W        W48007  16.625   5.243   7.774  0.1435  0.2364 -0.2140
    1W        W48008  25.513   4.936   1.380 -0.2447 -0.3321  0.0095
    1W        W48009   8.176   2.914   6.556  0.2652 -0.0775  0.0220
    1W        W48010  26.483   4.865   0.662 -0.1625 -0.0358 -0.0206
    1W        W48011  13.621  22.651   8.356 -0.1136 -0.2927  0.1935
    1W        W48012  21.304  25.613   7.116  0.2893 -0.5385  0.1877
    1W        W48013  16.556  12.338   9.226 -0.0874 -0.0243  0.2921
    1W        W48014   4.530  16.980   0.084 -0.4135 -0.2341 -0.0409
    1W        W48015  10.050  16.091   1.488  0.1817  0.0095  0.1196
    1W        W48016   4.613   1.535   1.964 -0.1238 -0.0882 -0.2054
    1W        W48017  24.456  28.335   2.148 -0.0617  0.2723 -0.1543
    1W        W48018  17.728   7.412   6.472  0.0216 -0.2028  0.3463
    1W        W48019  27.232   4.711   2.305  0.2599  0.5509 -0.0987
    1W        W48020  18.644  18.193   1.315  0.1164  0.0045  0.1183
    1W        W48021  17.460  14.690   0.813  0.0324 -0.0267 -0.0476
    1W        W48022  24.457  23.565   2.540 -0.1625  0.0890  0.0731
    1W        W48023  15.224   1.773   2.557  0.2445  0.1778 -0.2543
    1W        W48024  17.356   7.522   9.268 -0.1128 -0.1239  0.0122
    1W        W48025   5.138  28.928   8.336 -0.2584 -0.0978  0.1413
    1W        W48026   5.703  25.540   1.137 -0.2172 -0.1038 -0.1091
    1W        W48027  24.173  23.324   6.286 -0.1627 -0.1941 -0.1806
    1W        W48028  16.506   4.323   2.220  0.2676 -0.3694 -0.0513
    1W        W48029  10.293  27.986   2.618 -0.1598 -0.1127 -0.3056
    1W        W48030   9.204  13.871   7.911  0.2218  0.1423  0.1795
    1W        W48031  25.674   0.598   8.982 -0.2355  0.2976  0.0240
    1W        W48032  23.150   4.541   1.433 -0.2736 -0.2449 -0.4366
    1W        W48033   8.925   4.106   1.952 -0.0340 -0.0473 -0.0965
    1W        W48034  25.697  26.326   0.703  0.0847  0.1419 -0.3710
    1W        W48035  19.467   5.741   7.366  0.0364 -0.0813  0.1999
    1W        W48036  14.355  26.379   3.053 -0.3146  0.2316  0.1234
    1W        W48037   5.644  12.005   0.965  0.0701 -0.1088 -0.1252
    1W        W48038   4.541  26.052   7.156  0.3773  0.1449  0.3242
    1W        W48039  14.464  23.943   0.744  0.4273  0.0870  0.1738
    1W        W48040  28.633   9.464   2.931  0.1546 -0.2123 -0.2112
    1W        W48041   9.106  24.490   8.493 -0.0090 -0.1707  0.1926
    1W        W48042  20.229  25.574   6.244 -0.0994 -0.1515 -0.0904
    1W        W48043  13.411  21.505   0.271  0.3617 -0.0722 -0.0900
    1W        W48044  18.017   7.344   6.858 -0.1242  0.3515  0.1372
    1W        W48045   1.906   9.410   0.281 -0.1983  0.1801 -0.3363
    1W        W48046  28.638  22.430   2.503  0.0253  0.0271  0.3259
    1W        W48047  22.178  14.832   7.404 -0.1891  0.1118  0.2053
    1W        W48048  10.668  19.689   7.157 -0.0677 -0.3395  0.1868
    1W        W48049  20.121  25.990   9.121  0.0459  0.1337  0.0792
    1W        W48050  10.043  15.074   7.797  0.0811  0.2424  0.1524
    1W        W48051  25.706   0.234   0.090  0.1494  0.0867 -0.0754
    1W        W48052  12.180  12.074   7.190  0.1109 -0.0022 -0.2243
    1W        W48053  22.672  23.845   8.861  0.0245  0.1005  0.1917
    1W        W48054   8.629   0.985   9.121  0.0972 -0.2742 -0.0984
    1W        W48055  21.003  25.236   0.586  0.1175 -0.0737 -0.0600
    1W        W48056  13.418  27.031   6.312 -0.1621  0.2225 -0.1473
    1W        W48057  10.090  29.399   2.732  0.0770 -0.0687 -0.1353
    1W        W48058  30.346  10.250   8.124 -0.1009  0.1059 -0.1244
    1W        W48059  28.966  11.105   1.650  0.1096 -0.4152 -0.0841
    1W        W48060  28.266  11.060   6.952 -0.0688  0.2386  0.2362
    1W        W48061  19.893  15.765   0.993 -0.1065  0.1713  0.0727
    1W        W48062  23.686  11.740   6.395  0.1320  0.1721  0.0591
    1W        W48063   0.904  11.949   9.115 -0.2705 -0.2056 -0.0746
    1W        W48064   5.626  30.331   8.564  0.2366  0.1446 -0.1634
    1W        W48065  15.794  13.839   8.644  0.1369 -0.2054  0.2547
    1W        W48066  14.941   3.315   9.061 -0.4277  0.2356 -0.3717
    1W        W48067   0.425  10.290   1.397  0.0547  0.0679  0.1818
    1W        W48068  11.831   2.845   2.173 -0.0815  0.1211 -0.0345
    1W        W48069  23.830   1.022   2.400 -0.0468  0.1936  0.0132
    1W        W48070  19.832  15.928   2.413  0.0588 -0.0992 -0.2234
    1W        W48071  25.254   9.186   8.710 -0.3074 -0.0243  0.0683
    1W        W48072   9.751  27.553   1.208  0.0176  0.1268 -0.0079
    1W        W48073   2.313   1.546   0.746  0.2849  0.0181  0.3748
    1W        W48074  21.057  10.887   0.792 -0.0078 -0.0234  0.0410
    1W        W48075  17.021  21.872   1.322 -0.0569  0.0660 -0.1076
    1W        W48076  14.946  12.057   2.233  0.1732 -0.2072 -0.1601
    1W        W48077  13.856  16.830   1.945 -0.4005  0.1042  0.2979
    1W        W48078   9.825   8.538   8.593 -0.0025  0.0741  0.2875
    1W        W48079   9.344   2.145   8.728  0.0229 -0.0999 -0.0495
    1W        W48080  20.367   0.264   1.803  0.4435 -0.0380  0.1400
    1W        W48081  23.943   1.059   7.736 -0.1462 -0.0148 -0.0917
    1W        W48082  15.703  17.913   3.021 -0.0407  0.0108 -0.1320
    1W        W48083  19.504  19.639   6.065  0.2158  0.3155 -0.1215
    1W        W48084  17.043   0.173   1.492 -0.0711 -0.1925 -0.2028
    1W        W48085   0.696  18.166   8.594 -0.0760 -0.2233 -0.0566
    1W        W48086  25.176  21.818   8.090  0.0446  0.1124 -0.0111
    1W        W48087  28.699   4.587   7.971 -0.0753  0.1112  0.0230
    1W        W48088  17.854   2.688   1.053  0.1782  0.2330 -0.3189
    1W        W48089  28.300  15.308   7.279 -0.1715 -0.0806 -0.2142
    1W        W48090  19.330  16.675   1.056  0.0494 -0.0801  0.2065
    1W        W48091  25.257   0.821   1.556  0.0533 -0.1686 -0.0338
    1W        W48092   8.893   0.222   0.096 -0.0866  0.1417  0.2471
    1W        W48093  27.258  26.347   8.707 -0.2962 -0.4551 -0.0944
    1W        W48094  28.787  20.729   1.030 -0.0964 -0.0379 -0.1773
    1W        W48095  28.760  18.835   1.321  0.1803  0.2075 -0.0949
    1W        W48096  26.824  11.529   0.550 -0.0533 -0.1602  0.2185
    1W        W48097   5.415   5.434   1.852  0.1873  0.0435  0.3050
    1W        W48098  11.066   7.361   7.481 -0.2134 -0.2143 -0.3371
    1W        W48099  10.871  22.340   6.855  0.1093  0.3017 -0.1118
    1W        W48100  21.845  12.023   2.747 -0.0539  0.2392  0.1356
    1W        W48101  11.314   5.534   1.618 -0.2840  0.0068 -0.3008
    1W        W48102  25.923   5.245   7.487 -0.1440 -0.0385  0.2073
    1W        W48103  18.397  26.781   8.445 -0.0188 -0.0915  0.0709
    1W        W48104  13.742  15.430   1.287 -0.0721 -0.2496 -0.2704
    1W        W48105   0.012   9.479   7.989 -0.0461  0.0373  0.2195
    1W        W48106  16.318  10.154   2.304 -0.2344 -0.2109 -0.0914
    1W        W48107  23.736   7.833   0.757  0.0264  0.0039  0.0492
    1W        W48108  17.408  18.992   7.187 -0.1693  0.0032 -0.0291
    1W        W48109  27.580   8.861   2.804 -0.3273  0.0943  0.1590
    1W        W48110  18.745  23.488   0.367 -0.1236 -0.0480 -0.0538
    1W        W48111  24.029  26.054   7.643  0.0741  0.0147  0.0913
    1W        W48112   7.204  26.862   2.230  0.0516 -0.1252  0.0248
    1W        W48113   2.477  30.201   9.216  0.0715 -0.0263 -0.1585
    1W        W48114   7.462   4.595   3.315  0.4372  0.2843 -0.0437
    1W        W48115  16.785  24.133   2.729  0.3048 -0.3420  0.2042
    1W        W48116  29.370  26.696   8.143  0.2209 -0.1119  0.0725
    1W        W48117  14.251  19.248   8.402 -0.0272 -0.0584  0.0974
    1W        W48118   3.978  11.973   7.553 -0.1197 -0.2217 -0.3428
    1W        W48119   7.688   3.094   6.543  0.1550  0.0021 -0.0115
    1W        W48120  20.458  11.290   2.662 -0.3126  0.0637 -0.1099
    1W        W48121   6.648  11.827   6.277 -0.0207  0.2754  0.3125
    1W        W48122  10.648   2.211   1.990 -0.0815 -0.0576 -0.3195
    1W        W48123  10.828  15.171   9.101  0.0670 -0.3791 -0.1076
    1W        W48124  13.718  28.985   3.427  0.1985 -0.0830 -0.3042
    1W        W48125  26.978  29.978   0.366 -0.1275  0.3503  0.1106
    1W        W48126   2.859   0.628   7.320  0.0232 -0.2243  0.2762
    1W        W48127  10.556   1.338   9.095  0.0821 -0.0123  0.0862
    1W        W48128   5.312  28.385   2.138 -0.2371 -0.1698  0.2551
    1W        W48129   8.914  21.876   8.795 -0.1203 -0.0595 -0.1728
    1W        W48130   5.052   7.086   0.248 -0.2375  0.1188  0.1175
    1W        W48131  15.227  18.597   8.276 -0.0658  0.0294 -0.0067
    1W        W48132   6.504  14.357   0.613 -0.2419  0.2452  0.1797
    1W        W48133  22.353  19.758   8.137 -0.1145 -0.3478 -0.1291
    1W        W48134  26.904  26.600   3.515 -0.0793 -0.0905  0.3407
    1W        W48135  27.507  12.928   6.980  0.0885  0.2304  0.2074
    1W        W48136  30.212   2.785   2.754  0.0207 -0.3709 -0.0712
    1W        W48137   6.673   9.992   6.978 -0.0954  0.0661 -0.1314
    1W        W48138  17.568  14.005   8.935  0.1526 -0.2901 -0.0010
    1W        W48139  29.023   6.722   8.542 -0.3175 -0.0503 -0.0044
    1W        W48140  14.354  16.070   1.694 -0.2118 -0.0123 -0.1480
    1W        W48141  13.231   7.660   0.635 -0.0303  0.0858  0.0022
    1W        W48142  14.236  11.980   1.083  0.2081  0.2745  0.1753
    1W        W48143  18.666  26.141   2.466  0.0091  0.3305  0.2619
    1W        W48144  20.695   4.085   2.581 -0.0062 -0.0697  0.0754
    1W        W48145  19.880  24.726   8.724  0.0911 -0.1727  0.2034
    1W        W48146  19.864  22.595   1.446 -0.0270  0.1656 -0.0023
    1W        W48147  15.992   1.541   0.002 -0.2504  0.1926 -0.1855
    1W        W48148  17.767  16.825   2.465 -0.1618  0.1082 -0.0237
    1W        W48149  25.906   8.743   7.385 -0.1633  0.2598  0.0282
    1W        W48150  21.276  18.034   0.600  0.1392 -0.3867  0.0760
    1W        W48151  21.702   6.651   1.177 -0.0744 -0.1486  0.1337
    1W        W48152  28.959  23.717   2.162  0.0357  0.1377  0.0155
    1W        W48153   8.250  20.396   0.465 -0.0918  0.0634 -0.0528
    1W        W48154   7.513   1.618   1.709 -0.1690  0.1500 -0.1291
    1W        W48155  16.893  18.339   5.945  0.2079  0.2268  0.0551
    1W        W48156   1.921  14.134   1.499  0.0125  0.0483 -0.0503
    1W        W48157  14.296  11.290   2.972 -0.1406  0.3202  0.2496
    1W        W48158  25.232   1.860   7.290  0.0292  0.3100 -0.1153
    1W        W48159  14.535  28.910   6.840 -0.0231  0.0014  0.2129
    1W        W48160   6.081  26.519   6.635  0.1655 -0.2278 -0.5175
    1W        W48161  14.712   6.024   2.327  0.2136 -0.3144 -0.1695
    1W        W48162   7.110  22.668   8.016 -0.1375 -0.1449  0.3565
    1W        W48163   4.413   2.285   3.021 -0.3397  0.0589  0.2300
    1W        W48164  14.907  15.140   1.994 -0.0299  0.1672  0.2376
    1W        W48165  25.928  15.571   9.135 -0.0105  0.1943 -0.3304
    1W        W48166   6.845  21.128   6.340  0.2528 -0.3759  0.0466
    1W        W48167   5.320  29.183   1.917 -0.3537 -0.0802 -0.1522
    1W        W48168  13.988  13.379   1.444 -0.1231 -0.1571 -0.2398
    1W        W48169  13.528  27.978   2.787 -0.1852 -0.1879 -0.2937
    1W        W48170  11.126   5.727   8.897 -0.0068  0.0580 -0.1619
    1W        W48171  21.572  26.385   6.770 -0.2455 -0.1788  0.2866
    1W        W48172   7.621  14.884   1.866  0.0166  0.1055  0.2119
    1W        W48173  25.861  17.473   1.397 -0.1380 -0.0109  0.1270
    1W        W48174   1.550  15.574   6.868 -0.2641  0.0830 -0.1331
    1W        W48175   9.256   4.976   7.301 -0.1282 -0.2406 -0.1132
    1W        W48176  10.164  22.326   2.784  0.0326 -0.1229 -0.1701
    1W        W48177  27.238   5.931   7.039  0.0974 -0.5195 -0.2885
    1W        W48178  23.433   0.252   2.305  0.0929  0.0568  0.1548
    1W        W48179   6.173  21.032   5.743  0.0991 -0.0055  0.0788
    1W        W48180  21.116  27.538   0.464 -0.0291  0.0219  0.1406
    1W        W48181  25.767  20.563   0.979  0.1429  0.0985  0.3487
    1W        W48182  28.238  19.178   0.643  0.1231  0.1409  0.2062
    1W        W48183  24.327   9.704   8.538  0.0287  0.1851 -0.1629
    1W        W48184  29.664  11.421   0.120 -0.0625  0.0013  0.1153
    1W        W48185  21.710   5.072   1.979 -0.1048 -0.0861 -0.0009
    1W        W48186   5.097  16.645   8.014 -0.0677 -0.0411  0.2239
    1W        W48187   4.451  25.969   0.667 -0.2787 -0.0981 -0.4045
    1W        W48188  29.429  27.911   3.039 -0.2043  0.3123 -0.0989
    1W        W48189  13.468   7.245   0.019 -0.2270  0.0797 -0.0044
    1W        W48190  13.575   2.563   8.322 -0.1168 -0.1396  0.1475
    1W        W48191   4.320   6.368   6.618 -0.1850  0.1268  0.0343
    1W        W48192  21.135   0.313   6.430 -0.0375 -0.2561  0.0931
    1W        W48193  17.601   0.873   7.760  0.2523 -0.0272  0.0436
    1W        W48194  13.542   8.948   9.066  0.0220 -0.1522 -0.0306
    1W        W48195   5.729  22.027   6.579 -0.0739 -0.0227  0.0257
    1W        W48196   4.082   3.213   9.059  0.1914 -0.1300 -0.0185
    1W        W48197  10.353   0.894   7.164 -0.0130 -0.4937  0.0618
    1W        W48198  12.474   2.625   2.289  0.1496  0.1114 -0.1965
    1W        W48199  22.290  12.433   0.386 -0.0456 -0.0020 -0.1053
    1W        W48200  23.263   8.821   0.639 -0.1929  0.1896  0.0286
    1W        W48201  17.164   5.286   8.046 -0.3826  0.1080 -0.0018
    1W        W48202  22.706   3.321   3.434 -0.2404 -0.1902  0.1361
    1W        W48203  20.483  11.831   2.395  0.3550 -0.0673 -0.2757
    1W        W48204  10.713  16.477   0.812 -0.2761 -0.0628 -0.4627
    1W        W48205   4.096   5.205   1.726  0.0428  0.0422 -0.2381
    1W        W48206  19.597  19.226   6.377  0.0648 -0.2366  0.1011
    1W        W48207  20.089  16.883   0.672 -0.0246  0.2820 -0.0495
    1W        W48208  10.144  26.907   2.986 -0.0082 -0.5485 -0.0205
    1W        W48209  23.576  29.287   0.965  0.0409  0.2446  0.4914
    1W        W48210   5.761  18.296   7.716  0.1286 -0.0837  0.1974
    1W        W48211  13.159  24.504   2.795 -0.1071 -0.0496  0.0482
    1W        W48212   9.227   6.182   0.933 -0.1141 -0.1179 -0.1939
    1W        W48213  12.674  20.925   8.331 -0.2703 -0.1684 -0.2068
    1W        W48214  28.391   3.115   1.136  0.3445  0.2142  0.4096
    1W        W48215   1.346  30.071   0.700  0.0982  0.0637 -0.0618
    1W        W48216  17.444  18.139   6.429  0.0760 -0.1940 -0.0311
    1W        W48217   0.973  18.594   8.654  0.0899  0.0542 -0.0771
    1W        W48218  15.608  19.155   0.341  0.0564 -0.0556 -0.0168
    1W        W48219  10.761   8.351   8.234 -0.0908  0.2672 -0.3784
    1W        W48220  16.966  17.937   6.273 -0.2869 -0.1661 -0.1493
    1W        W48221  13.903  16.608   6.424  0.3005 -0.0231 -0.1293
    1W        W48222  19.599   9.757   0.567 -0.2359  0.4144  0.0594
    1W        W48223  26.322   5.021   7.248 -0.3034 -0.0283  0.4393
    1W        W48224  19.998  18.710   6.909  0.0869 -0.1365 -0.2586
    1W        W48225  23.843  21.473   6.810  0.2458  0.1912  0.3471
    1W        W48226   8.954   8.487   7.033 -0.1018  0.0089 -0.1276
    1W        W48227  10.428   7.772   2.270  0.0253 -0.1870 -0.0085
    1W        W48228  16.312  17.822   7.066  0.1578  0.4113  0.0327
    1W        W48229  17.900   3.656   1.437 -0.1068  0.3645 -0.1144
    1W        W48230   4.571  17.556   0.985  0.1703  0.1343 -0.1478
    1W        W48231   5.634  16.198   2.038 -0.0640  0.0823 -0.3572
    1W        W48232   6.322  13.312   1.941  0.1056 -0.2778 -0.3514
    1W        W48233  14.369   4.737   1.019  0.0896 -0.0220  0.2552
    1W        W48234   3.195  21.093   0.528 -0.0580  0.0987  0.0417
    1W        W48235  15.951  10.699   2.381 -0.2713 -0.1655 -0.0545
    1W        W48236  12.480   9.698   2.460  0.1691  0.0698  0.0592
    1W        W48237   3.063  28.352   3.863 -0.1724  0.0931 -0.0673
    1W        W48238   7.724   8.416   2.129  0.2227 -0.1181  0.2692
    1W        W48239   3.452  20.547   7.954 -0.1507  0.0182  0.0957
    1W        W48240  11.743   2.560   7.685  0.2427 -0.2005 -0.0102
    1W        W48241   0.038   8.853   1.333  0.1351  0.0438  0.1394
    1W        W48242   6.025  27.280   2.148 -0.0646  0.0546  0.0704
    1W        W48243   2.477  13.833   0.888 -0.1649  0.1679 -0.3210
    1W        W48244   2.440  18.000   1.856 -0.1481 -0.4246  0.1110
    1W        W48245   6.616   2.182   0.516  0.0611 -0.1327 -0.2389
    1W        W48246  14.545  25.277   1.527 -0.0570  0.1869 -0.1416
    1W        W48247  26.678  28.186   0.098 -0.0583 -0.0973 -0.0522
    1W        W48248  16.930  25.943   9.087  0.0676  0.0614  0.0191
    1W        W48249   5.669   9.056   2.050 -0.3316 -0.1013 -0.3110
    1W        W48250  23.937  21.276   0.391 -0.2189 -0.1860 -0.0612
    1W        W48251   4.559  23.828   2.009 -0.0343  0.1665  0.4151
    1W        W48252  12.418  16.745   8.379  0.0144 -0.1773 -0.1224
    1W        W48253  17.043  14.446   3.220  0.0784 -0.2162  0.0048
    1W        W48254   0.970   0.918   8.876 -0.2305 -0.1099  0.2453
    1W        W48255  11.614  11.200   2.091  0.0701 -0.3946  0.1629
    1W        W48256   6.900   9.630   1.823  0.2317  0.0280  0.0760
    1W        W48257  18.429  15.949   1.258 -0.2595 -0.0652 -0.1420
    1W        W48258  13.586   0.699   7.496  0.1537  0.0452 -0.3933
    1W        W48259   1.405   2.697   3.264 -0.1479  0.0574 -0.0077
    1W        W48260  17.685  21.640   0.799  0.0282  0.0825 -0.1206
    1W        W48261   1.218  28.997   0.065  0.0942 -0.1385 -0.0361
    1W        W48262  15.330  13.213   0.407  0.0827 -0.1605 -0.4818
    1W        W48263   6.033  24.325   2.670  0.4114  0.0985 -0.0338
    1W        W48264  12.658   3.568   2.238  0.1380  0.0032  0.0057
    1W        W48265   9.302   0.124   0.330  0.0052  0.3109 -0.1383
    1W        W48266   1.889  25.591   8.701  0.0568 -0.1487 -0.0903
    1W        W48267  22.071  17.352   1.864  0.0151 -0.0051  0.5033
    1W        W48268  16.044  21.984   2.134 -0.0666 -0.1483 -0.1132
    1W        W48269   8.825  13.053   0.712 -0.3671  0.0574 -0.0779
    1W        W48270   4.368   6.767   2.728 -0.2859 -0.5165 -0.1646
    1W        W48271   3.121  27.286   7.304  0.0396  0.0729  0.0719
    1W        W48272  14.637   3.403   2.256  0.2189 -0.0233  0.0946
    1W        W48273  17.383   6.810   5.859 -0.2948 -0.0864 -0.0683
    1W        W48274  15.400   7.217   0.856 -0.1971 -0.3261  0.1996
    1W        W48275  28.077  27.346   0.285  0.0068 -0.1944 -0.2704
    1W        W48276   2.191  15.902   1.826  0.0536 -0.1756  0.0294
    1W        W48277  16.638  16.988   1.808 -0.2431  0.0082 -0.3964
    1W        W48278  28.915   1.969   2.077  0.0318 -0.0006  0.0692
    1W        W48279   7.492  20.019   1.435 -0.3251  0.0776  0.2489
    1W        W48280  24.730  26.986   1.341 -0.1540 -0.1839 -0.4394
    1W        W48281  14.810  23.383   0.493  0.5177  0.0809 -0.4412
    1W        W48282  13.807  22.667   0.495  0.2826  0.3575  0.0978
    1W        W48283  20.278  24.120   9.186  0.1835  0.2762 -0.1122
    1W        W48284   3.935  29.671   8.391 -0.0188 -0.1504  0.0277
    1W        W48285  30.179  27.499   2.522 -0.1996  0.0341 -0.0125
    1W        W48286   0.855  22.714   7.580  0.3366 -0.0993  0.0596
    1W        W48287  13.618  16.174   8.065 -0.0642  0.1012 -0.0944
    1W        W48288  28.822   7.535   7.005  0.1881  0.2406  0.1391
    1W        W48289  25.481  11.313   7.077  0.0186  0.0842  0.0214
    1W        W48290  27.784  24.730   7.153  0.0492  0.0922 -0.2587
    1W        W48291   8.016  15.429   0.601  0.0191  0.0957 -0.2490
    1W        W48292  10.096  28.526   8.827 -0.1124 -0.5004  0.1010
    1W        W48293  27.539  14.161   8.628 -0.0175 -0.0922  0.1161
    1W        W48294  13.049   0.619   7.886  0.1044  0.0154 -0.0269
    1W        W48295  23.738  11.347   7.156 -0.2580  0.1848  0.4283
    1W        W48296  21.571  13.913   6.235  0.3996 -0.1343 -0.0198
    1W        W48297  24.044  27.339   1.733 -0.1998 -0.2336  0.3312
    1W        W48298  16.417   1.883   8.787  0.2488 -0.1013 -0.0476
    1W        W48299  13.754  14.164   8.191  0.0775  0.1475  0.0241
    1W        W48300   2.748  13.347   9.199 -0.0945 -0.2044  0.0607
    1W        W48301   8.938   0.651   2.633 -0.3988 -0.2426  0.1857
    1W        W48302  28.648  29.737   9.082  0.2189 -0.1838 -0.1106
    1W        W48303  17.850  18.003   8.785 -0.1204 -0.1234 -0.1597
    1W        W48304  16.382   9.598   2.094  0.0436  0.2057  0.1624
    1W        W48305  11.124  26.456   8.599  0.0489 -0.1832 -0.0707
    1W        W48306   5.480  12.689   8.049  0.0531  0.0804 -0.0483
    1W        W48307   9.953   9.322   1.125 -0.1847  0.0241  0.2473
    1W        W48308  27.828  29.387   1.468  0.4792  0.2065  0.0045
    1W        W48309   6.447   4.335   6.888 -0.1207 -0.0709 -0.2011
    1W        W48310   5.324  23.957   0.014 -0.0516 -0.2694 -0.0672
    1W        W48311  26.565   7.803   0.740 -0.2352  0.1276  0.0316
    1W        W48312  27.884  18.324   7.766 -0.2806  0.1460 -0.0280
    1W        W48313  22.267  21.180   6.785  0.2247  0.1403  0.2272
    1W        W48314  26.977  29.572   7.416 -0.1289 -0.2423 -0.5215
    1W        W48315   4.273  15.116   7.111 -0.0475 -0.2206  0.2325
    1W        W48316   3.373  13.390   8.088 -0.0500 -0.3129  0.0500
    1W        W48317   3.950  20.908   0.978  0.0899  0.3627 -0.1061
    1W        W48318  30.200   5.216   9.134  0.2749  0.2553 -0.0174
    1W        W48319  10.144   8.246   1.675 -0.4756 -0.2632 -0.0443
    1W        W48320   3.164  26.085   1.777  0.1846 -0.1033 -0.1645
    1W        W48321   1.138  29.667   2.404 -0.0279 -0.0073 -0.1384
    1W        W48322   2.944  25.034   2.339  0.1096 -0.1011 -0.1194
    1W        W48323  25.790   1.950   1.530 -0.3716 -0.0802  0.0179
    1W        W48324  25.855  10.511   7.345 -0.0560  0.3134 -0.1222
    1W        W48325  20.081  21.491   8.127 -0.0700  0.1034  0.2708
    1W        W48326   1.037   9.037   8.183  0.1730 -0.1461  0.1392
    1W        W48327   0.505   7.817   1.729 -0.2904  0.0519  0.1676
    1W        W48328  26.953   6.082   7.890  0.2970  0.2862  0.1578
    1W        W48329  27.462   1.465   2.343 -0.1382 -0.1954  0.0509
    1W        W48330  17.461   6.000   9.120  0.0886  0.1176  0.0872
    1W        W48331  26.765   4.638   8.414  0.2508  0.2545 -0.6188
    1W        W48332  14.137  13.972   3.189  0.0688 -0.3237 -0.3319
    1W        W48333   2.464   6.254   8.760  0.1286  0.1559  0.0562
    1W        W48334   8.181   8.696   1.249  0.0693  0.0750  0.1820
    1W        W48335  16.839   2.931   7.718 -0.0477  0.1361  0.3200
    1W        W48336  22.205  17.485   6.779  0.1313  0.1135 -0.0155
    1W        W48337  23.212   7.785   8.651  0.1483  0.1389  0.0619
    1W        W48338  21.713  16.571   8.552  0.1906 -0.1119 -0.2174
    1W        W48339   0.147   7.746   7.190 -0.1665  0.0385  0.0526
    1W        W48340   2.690   2.978   1.045  0.1632 -0.1854  0.3037
    1W        W48341   6.565  23.003   0.278 -0.2309  0.0092 -0.0452
    1W        W48342  13.901   0.289   7.459 -0.0505  0.4806 -0.0832
    1W        W48343   5.805  10.192   7.021  0.2412  0.1231  0.4302
    1W        W48344   6.112   2.575   7.792  0.0485  0.1561  0.1004
    1W        W48345  29.390  29.887   0.139 -0.0128 -0.1391  0.0229
    1W        W48346  15.769  10.214   8.293  0.0942  0.1513  0.0977
    1W        W48347  19.953  11.770   8.369 -0.1597  0.2970  0.2373
    1W        W48348  22.667   5.792   8.419 -0.0420 -0.2445 -0.3651
    1W        W48349  29.249  20.852   7.249 -0.1499  0.0847  0.1015
    1W        W48350   5.203  20.302   8.923 -0.2139 -0.1475  0.0688
    1W        W48351  18.833  22.597   2.755  0.1152 -0.1624  0.2188
    1W        W48352   7.799  24.811   1.460 -0.3501 -0.2780 -0.3332
    1W        W48353  29.631  28.718   7.900  0.2305 -0.0053  0.1901
    1W        W48354   9.363   3.757   1.031 -0.2455 -0.2099 -0.4031
    1W        W48355  15.626  11.479   1.470  0.0453 -0.1485  0.1020
    1W        W48356   5.849   5.785   0.371  0.2200  0.0863 -0.3543
    1W        W48357   2.025  20.875   8.447 -0.1797  0.0588  0.0490
    1W        W48358  29.267  25.626   1.621 -0.0232  0.0856 -0.3292
    1W        W48359   8.153  25.703   0.433 -0.0697  0.0217  0.0155
    1W        W48360  12.675  21.077   5.666 -0.0711  0.1640 -0.0228
    1W        W48361  29.290  11.084   1.220 -0.0852 -0.0279  0.1068
    1W        W48362  23.764  19.286   1.143 -0.0439  0.1073 -0.4400
    1W        W48363   1.200   7.610   0.804  0.1811  0.0599 -0.2122
    1W        W48364  10.059   9.565   1.524  0.0892 -0.0332 -0.2644
    1W        W48365   6.927  26.433   0.211 -0.2140  0.1924  0.3287
    1W        W48366  17.522  15.629   0.878  0.0977 -0.0436 -0.1148
    1W        W48367   5.121  14.566   0.646  0.0248  0.1049  0.1501
    1W        W48368   2.477  25.448   2.435 -0.1097  0.1623 -0.0081
    1W        W48369   8.133  29.426   8.614  0.1490  0.1289 -0.1013
    1W        W48370  23.967  12.621   8.566  0.0513 -0.1957  0.0229
    1W        W48371  10.395  17.407   0.979  0.3101  0.2415 -0.3533
    1W        W48372  14.866   8.403   1.658  0.2011 -0.0451  0.2391
    1W        W48373  11.572   3.712   2.007 -0.3471 -0.1918 -0.0084
    1W        W48374  21.372   5.991   8.710  0.0074  0.1096 -0.0560
    1W        W48375  18.601  26.408   7.468 -0.4487  0.1348  0.2163
    1W        W48376  18.929  16.322   1.320  0.1497 -0.3606  0.0620
    1W        W48377  28.273  11.453   1.151 -0.1328 -0.1367  0.1714
    1W        W48378   6.995  14.630   8.760  0.0486  0.0722 -0.0605
    1W        W48379  13.897   6.027   2.005  0.0884  0.4091 -0.0730
    1W        W48380  14.538  26.659   2.644 -0.2367 -0.1455  0.0487
    1W        W48381  16.176   0.871   1.995  0.1813 -0.0212 -0.3472
    1W        W48382   6.637   1.846   0.110 -0.0467 -0.1405 -0.1505
    1W        W48383  29.153  22.747   0.947  0.2332  0.1520  0.0400
    1W        W48384  28.330   8.720   7.703 -0.0138  0.0288  0.0635
    1W        W48385   5.736  20.235   1.030  0.0030 -0.0399  0.1558
    1W        W48386  17.096   7.051   9.055  0.0052 -0.4023 -0.1762
    1W        W48387   8.685   3.726   1.552  0.3860  0.2420 -0.5349
    1W        W48388  27.794  11.122   7.108  0.0929 -0.1730 -0.1267
    1W        W48389  24.497   4.193   2.343  0.0776  0.1631 -0.1281
    1W        W48390  22.469  17.522   1.503 -0.0584 -0.0607 -0.2327
    1W        W48391  12.336  17.191   2.700 -0.0477 -0.3962  0.1220
    1W        W48392  20.166   1.549   7.483 -0.1986 -0.0176  0.1351
    1W        W48393  18.840   6.167   6.597 -0.3190 -0.3002 -0.1814
    1W        W48394  23.181   7.727   1.637 -0.0631  0.0705  0.0004
    1W        W48395   5.124   3.096   1.324 -0.0012  0.2261  0.2246
    1W        W48396  24.316  26.536   2.462  0.3454  0.0419  0.3150
    1W        W48397  28.980  10.052   0.754 -0.2813 -0.2181  0.0769
    1W        W48398  20.982  15.884   8.335  0.0161  0.0876 -0.1120
    1W        W48399  11.710  30.143   8.375  0.1369  0.0162  0.2124
    1W        W48400  20.707   5.897   0.045  0.0074  0.1434  0.2023
    1W        W48401   7.038   1.602   8.214  0.0752  0.3357 -0.2766
    1W        W48402  28.567  13.436   0.131  0.1313  0.1028  0.1443
    1W        W48403  11.663   2.010   1.760  0.1872  0.1647  0.1369
    1W        W48404   0.407  17.566   7.758 -0.0724 -0.0240  0.3164
    1W        W48405  14.232  10.022   8.109  0.1303 -0.0220 -0.1095
    1W        W48406   2.034  13.972   7.900  0.3959 -0.0272 -0.1374
    1W        W48407   7.038  29.830   0.595  0.0926  0.2126 -0.0459
    1W        W48408  16.116  10.003   7.734 -0.0882 -0.2291 -0.0833
    1W        W48409  20.881   4.365   8.141 -0.1400  0.0814 -0.3005
    1W        W48410  21.303   4.749   2.189 -0.1277  0.0269 -0.2485
    1W        W48411   5.104  29.777   7.847  0.0110 -0.2566 -0.1442
    1W        W48412  11.675  22.381   2.537 -0.2201 -0.0577 -0.0827
    1W        W48413   7.597  22.343   0.759  0.1818 -0.1199  0.2149
    1W        W48414   4.533   4.127   7.412 -0.0203  0.1157 -0.0083
    1W        W48415  15.893  14.336   3.076  0.0813  0.0924 -0.0837
    1W        W48416  19.020   8.367   5.920 -0.0563  0.3536 -0.0790
    1W        W48417  15.182  28.327   8.488 -0.0185  0.0392  0.1405
    1W        W48418  10.914  19.559   6.688  0.0243  0.0469  0.4040
    1W        W48419  28.889  29.402   1.302 -0.0510  0.0418 -0.4401
    1W        W48420  21.111   6.197   9.125  0.0515 -0.2395  0.0856
    1W        W48421   5.521  14.753   7.499 -0.0162  0.2340 -0.1431
    1W        W48422  23.916  19.362   0.671  0.0495  0.0048 -0.0300
    1W        W48423   0.871  27.790   1.582  0.0118 -0.1701  0.1504
    1W        W48424   7.729  29.862   6.540 -0.1571 -0.0374  0.0141
    1W        W48425   2.393  25.261   8.832 -0.3726  0.2627  0.3928
    1W        W48426   8.503   5.619   7.229 -0.1032 -0.2226  0.1237
    1W        W48427  17.031  21.985   1.853  0.0771 -0.2986  0.2456
    1W        W48428   4.203  16.131   1.022 -0.0100  0.1584 -0.0625
    1W        W48429   1.241   6.107   7.778  0.3568 -0.0088  0.1351
    1W        W48430  22.151  21.936   6.489  0.2432  0.0057 -0.1010
    1W        W48431  19.787  10.734   0.050 -0.0687 -0.1049  0.0753
    1W        W48432  19.242  18.376   2.461 -0.0506  0.1982  0.2133
    1W        W48433  24.386   6.206   8.095 -0.3652  0.7044  0.3705
    1W        W48434  26.731   0.302   8.184 -0.0505 -0.2272  0.1913
    1W        W48435  14.477   3.978   0.659  0.3167 -0.1447  0.1763
    1W        W48436   9.647  21.867   0.968 -0.0439  0.1174 -0.0212
    1W        W48437   1.096  15.564   1.390  0.0661  0.0695 -0.1388
    1W        W48438   4.256   2.456   7.814 -0.1174  0.1523  0.1576
    1W        W48439  21.116  11.595   2.154 -0.0880 -0.3412 -0.1745
    1W        W48440  19.240  14.516   6.574 -0.3629 -0.1472 -0.1074
    1W        W48441   0.579   0.568   9.076 -0.0567 -0.0521  0.2241
    1W        W48442   9.704  19.636   7.946 -0.0119 -0.0606 -0.2600
    1W        W48443   2.891  19.486   8.619 -0.0589  0.3801 -0.3260
    1W        W48444   5.331   0.518   2.052 -0.2166  0.1284 -0.2611
    1W        W48445  23.754  14.437   1.889  0.2005  0.0002 -0.0255
    1W        W48446  19.747   9.092   6.682  0.3511 -0.0213  0.0075
    1W        W48447   1.142  26.576   0.277 -0.2083 -0.1797 -0.0641
    1W        W48448  20.253  12.095   7.516 -0.1423 -0.0313  0.0742
    1W        W48449  29.084  29.229   0.815  0.2001  0.1163 -0.2829
    1W        W48450  14.632  29.322   2.712  0.1302 -0.0069  0.0315
    1W        W48451  20.252  23.951   8.105  0.1526  0.0154 -0.1164
    1W        W48452   9.993   2.581   0.449 -0.0009  0.2706 -0.0010
    1W        W48453  25.288  27.252   2.133  0.0025 -0.3057 -0.1219
    1W        W48454   0.569   9.981   1.824  0.2341 -0.3389 -0.1663
    1W        W48455  26.936  26.873   1.847 -0.2231 -0.1752  0.1370
    1W        W48456   0.836  21.393   0.002  0.0112  0.0685 -0.0080
    1W        W48457  29.701  24.452   9.072 -0.2353 -0.2180  0.2123
    1W        W48458   0.451   8.269   8.652 -0.4208 -0.0624  0.2421
    1W        W48459   1.764  20.680   6.440  0.1191  0.0185  0.0846
    1W        W48460   7.502   7.280   1.233 -0.0624  0.2001 -0.3789
    1W        W48461   5.545  14.946   6.448 -0.0122  0.0300  0.0004
    1W        W48462   0.189  15.854   8.127  0.0309  0.3837 -0.1073
    1W        W48463   9.555  21.037   2.408 -0.0476  0.1547  0.0788
    1W        W48464   8.414   3.208   1.623 -0.0087 -0.3840 -0.0507
    1W        W48465  22.154   7.294   5.509 -0.3819 -0.0206  0.0040
    1W        W48466   6.102  30.294   8.668 -0.0730 -0.1494  0.1637
    1W        W48467  24.326  11.999   1.474  0.0219 -0.0998  0.1720
    1W        W48468  17.470  29.591   6.390  0.1839 -0.0104 -0.0563
    1W        W48469  17.029   4.324   6.378 -0.1623  0.1028 -0.1473
    1W        W48470  13.755   0.520   2.950 -0.4483 -0.1494  0.1274
    1W        W48471  15.496   7.576   7.201 -0.2503  0.1223 -0.3642
    1W        W48472   3.159   9.961   0.586  0.0153 -0.1526 -0.0188
    1W        W48473   1.250   0.437   0.499 -0.2327 -0.0672  0.1335
    1W        W48474   3.196  19.078   8.458 -0.2036  0.0048 -0.1167
    1W        W48475  28.429  22.177   7.101 -0.1093  0.0818 -0.1272
    1W        W48476  24.567  23.930   7.469 -0.1444  0.0922  0.1901
    1W        W48477   9.111  16.793   7.106  0.0279  0.2525  0.3169
    1W        W48478  19.527  17.366   1.394 -0.0178 -0.2119  0.2677
    1W        W48479  21.817  26.372   2.279  0.0863  0.1691 -0.3604
    1W        W48480  18.496   4.016   0.035  0.2369 -0.0279  0.1345
    1W        W48481  20.912  11.071   1.655  0.1020 -0.2876 -0.0344
    1W        W48482  21.075   4.279   7.255 -0.0572 -0.0937  0.0263
    1W        W48483  15.989   4.019   0.424 -0.1284  0.0954 -0.1627
    1W        W48484  13.578  11.412   0.963 -0.1010 -0.0338  0.0624
    1W        W48485   7.028  17.552   1.308  0.0949  0.0242  0.3144
    1W        W48486   6.022  23.098   8.007 -0.1998  0.3635 -0.1454
    1W        W48487  12.027  29.783   8.183 -0.2847  0.0842  0.0609
    1W        W48488   8.418  22.334   0.036  0.2429  0.1246  0.0317
    1W        W48489   4.487   1.704   3.129  0.1265 -0.1039 -0.1249
    1W        W48490  11.623   2.153   6.293 -0.0675 -0.0785 -0.0423
    1W        W48491   4.664  23.980   6.834  0.1451  0.2592 -0.1932
    1W        W48492  22.136  15.791   7.955  0.0150  0.1836  0.0297
    1W        W48493  18.801  16.774   8.485  0.0414  0.1032 -0.1496
    1W        W48494   7.812  11.020   8.120 -0.2924  0.2042  0.1298
    1W        W48495  16.779  14.888   8.692  0.0577  0.0644  0.1405
    1W        W48496  10.492  15.950   7.666 -0.3235  0.1180 -0.3044
    1W        W48497   7.454   6.630   0.066  0.0484 -0.0010  0.2161
    1W        W48498  13.389  27.314   1.202  0.3283 -0.2688  0.1638
    1W        W48499   9.528   2.585   7.469 -0.4733 -0.2268  0.2438
    1W        W48500  14.663  17.790   0.081 -0.0221 -0.0602  0.0477
    1W        W48501  30.017   4.634   2.443  0.3183  0.1128  0.0303
    1W        W48502  10.047  11.095   0.439 -0.0872 -0.0113  0.1399
    1W        W48503   3.138   9.654   7.344 -0.1463 -0.1682  0.0263
    1W        W48504  19.167  27.132   2.709 -0.1527 -0.1753  0.0441
    1W        W48505  19.629  21.558   8.335 -0.1943  0.3464 -0.0737
    1W        W48506  22.318  17.515   8.540  0.1695 -0.0297 -0.2836
    1W        W48507  24.986   4.174   8.111  0.2980  0.1942  0.0113
    1W        W48508  28.037   8.764   0.416 -0.2115  0.0518 -0.0069
    1W        W48509  18.523  20.710   1.712  0.1182 -0.3376 -0.2171
    1W        W48510   3.467   5.618   2.655 -0.3082 -0.3124  0.2139
    1W        W48511   4.558  21.393   6.147 -0.2098 -0.0218 -0.1276
    1W        W48512   8.747   9.521   9.043 -0.3137 -0.0873 -0.1363
    1W        W48513  24.979  17.819   0.291 -0.0036  0.2242 -0.0955
    1W        W48514  16.518  26.013   8.760 -0.1042  0.0128  0.0268
    1W        W48515  30.107  13.334   8.612 -0.1755  0.2722 -0.2054
    1W        W48516  12.843  11.220   2.384  0.0034  0.0025 -0.2377
    1W        W48517  30.186   5.923   0.621 -0.0305  0.1851  0.1677
    1W        W48518   9.400  25.683   8.535 -0.3933 -0.0569  0.1156
    1W        W48519  18.066   0.366   6.840 -0.2147  0.0106 -0.1518
    1W        W48520  28.885  10.070   6.974  0.1869  0.1591 -0.0236
    1W        W48521  19.632   9.254   2.392  0.0659 -0.2512  0.0273
    1W        W48522  19.549   6.866   8.830  0.2374 -0.0457 -0.0663
    1W        W48523  27.332  15.373   8.297 -0.0507  0.2388  0.3999
    1W        W48524  15.061  11.586   8.128 -0.1514  0.0441  0.0042
    1W        W48525   4.019  23.925   7.453  0.0821  0.0210  0.0119
    1W        W48526   6.769   4.695   8.681 -0.2702  0.0374  0.1352
    1W        W48527  18.647   8.115   7.542 -0.0552 -0.0911  0.1959
    1W        W48528  17.718  17.944   5.943 -0.0884 -0.0183  0.2063
    1W        W48529  19.811   1.224   6.623  0.0293  0.0520  0.0923
    1W        W48530  13.002   7.949   7.101 -0.3447 -0.0807 -0.0030
    1W        W48531  14.102   4.411   2.787  0.1337 -0.5481 -0.0114
    1W        W48532  14.104  29.331   3.480  0.1761  0.5435  0.5039
    1W        W48533  20.533  21.938   1.510 -0.2281 -0.4996 -0.1314
    1W        W48534  28.784  29.392   2.275 -0.3621 -0.2104 -0.0906
    1W        W48535  25.530   7.211   2.519  0.0144 -0.0595 -0.2691
    1W        W48536  27.559  11.407   1.630 -0.0718  0.5492  0.0059
    1W        W48537  11.570   9.548   8.796 -0.2188  0.1291 -0.0081
    1W        W48538  11.835  24.746   1.380  0.2530  0.1451 -0.0962
    1W        W48539  26.986  19.772   9.028 -0.0381 -0.1171  0.0297
    1W        W48540   6.052   9.350   1.933 -0.1948 -0.2273 -0.1368
    1W        W48541  24.959  25.109   1.359  0.0395  0.2940  0.1224
    1W        W48542  27.665   6.514   8.513  0.2903  0.2423 -0.2804
    1W        W48543   8.482  17.944   8.446 -0.0779 -0.1921  0.4739
    1W        W48544   2.258   4.254   8.246  0.0322 -0.3544 -0.0997
    1W        W48545   2.475   2.236   2.554  0.0435  0.0624  0.0363
    1W        W48546  16.422  11.898   2.794 -0.0453 -0.2157  0.2545
    1W        W48547  22.430   6.142   8.105 -0.0035  0.0862  0.3074
    1W        W48548  18.506  26.339   1.910 -0.0648 -0.0034  0.2550
    1W        W48549  11.598   8.069   1.261 -0.3317 -0.2693 -0.1277
    1W        W48550  11.057   6.716   8.943 -0.0585 -0.1689  0.0365
    1W        W48551  10.762  17.657   8.146 -0.1151  0.0124  0.0046
    1W        W48552  11.378   8.296   1.694 -0.0432  0.0288  0.0179
    1W        W48553   4.101  27.802   3.671  0.2458  0.1213 -0.1427
    1W        W48554   6.836   8.627   1.893  0.0630  0.0560 -0.4106
    1W        W48555  10.771  29.727   8.573  0.0660 -0.0942  0.0620
    1W        W48556   9.826  15.689   0.563  0.2749  0.0970 -0.1130
    1W        W48557   1.250  20.891   0.541  0.1020 -0.0853  0.1531
    1W        W48558  27.193  11.555   2.359  0.0701 -0.0238 -0.1270
    1W        W48559   3.427  13.794   1.090 -0.0447 -0.2972 -0.0452
    1W        W48560   6.385  16.876   0.447 -0.0883 -0.0049  0.0316
    1W        W48561  22.727   6.706   2.137 -0.2918  0.3043 -0.0399
    1W        W48562   0.729  14.422   7.738 -0.1690 -0.0910 -0.2313
    1W        W48563  30.084   8.002   8.408  0.1621  0.1101  0.1266
    1W        W48564  24.924  13.072   8.393  0.1634  0.1271 -0.0997
    1W        W48565  18.698   3.999   1.019 -0.0454 -0.2592 -0.0870
    1W        W48566  11.011   5.437   0.026  0.3748  0.4645 -0.0863
    1W        W48567  28.491   1.704   2.295  0.1083 -0.1317  0.0039
    1W        W48568  14.433  27.973   8.609 -0.1316 -0.2311 -0.3333
    1W        W48569  15.577  22.047   1.463  0.1230  0.1829  0.2517
    1W        W48570  17.704  13.814   0.495  0.0717  0.1804 -0.2421
    1W        W48571  16.739  25.711   7.214 -0.0435 -0.0943  0.0514
    1W        W48572   8.723  15.136   8.700 -0.1315  0.1535 -0.0461
    1W        W48573   6.174  25.245   7.832 -0.1793  0.0031 -0.2595
    1W        W48574   2.723  28.820   0.825 -0.3934 -0.3390 -0.1664
    1W        W48575   6.794  19.038   6.450  0.0016  0.1281  0.0801
    1W        W48576   1.994  23.072   1.564 -0.2513 -0.0969  0.2276
    1W        W48577   8.513  16.615   8.614 -0.2103  0.3100  0.0745
    1W        W48578   2.212  30.177   8.089 -0.2813  0.0324 -0.2935
    1W        W48579  25.807  27.427   0.123 -0.0928 -0.1549  0.0470
    1W        W48580  13.901  29.360   7.713  0.1116  0.1078  0.0232
    1W        W48581   6.355   9.330   9.105  0.0139 -0.1727  0.1651
    1W        W48582  17.760   0.877   2.569  0.2523 -0.0961 -0.1142
    1W        W48583  19.691   7.781   9.136 -0.1618  0.2499 -0.0695
    1W        W48584  29.232  23.724   1.330 -0.0373 -0.0862  0.1170
    1W        W48585   2.890  28.844   2.120  0.0346 -0.0799  0.3475
    1W        W48586  26.255   7.315   1.928  0.2075  0.2750  0.2726
    1W        W48587  24.235  16.558   8.012  0.2032  0.3733 -0.1416
    1W        W48588  26.624  28.073   7.038  0.1133 -0.3938 -0.0317
    1W        W48589  26.093   9.252   2.878  0.2233 -0.2009  0.1154
    1W        W48590   3.813   9.992   6.428  0.0187 -0.1231  0.1087
    1W        W48591  11.080  13.784   8.020 -0.0183 -0.1526 -0.5291
    1W        W48592  19.825  19.903   8.504 -0.0227  0.1120  0.1678
    1W        W48593  20.046  20.189   6.161 -0.1970 -0.0510  0.0478
    1W        W48594  25.584   4.139   2.661  0.1546  0.1811  0.3461
    1W        W48595   6.572   0.943   2.434  0.1587  0.0746  0.0537
    1W        W48596  12.475   8.405   8.275  0.1930  0.0345  0.1306
    1W        W48597  16.129  10.470   7.989 -0.5064 -0.3682  0.0456
    1W        W48598  15.115  15.882   9.127  0.0100  0.0014 -0.2362
    1W        W48599  14.806  24.051   0.283 -0.2284  0.0820 -0.1581
    1W        W48600   2.351  12.369   8.543  0.1149  0.1516  0.0612
    1W        W48601   1.292  22.332   1.615 -0.2351 -0.1090  0.2517
    1W        W48602   6.659  15.641   1.402 -0.0625 -0.0696  0.2736
    1W        W48603  23.179  15.411   0.457 -0.2117 -0.1151 -0.1226
    1W        W48604  26.663  29.096   1.016  0.0977  0.1249 -0.0858
    1W        W48605   1.733   6.372   7.869 -0.1415  0.0927  0.2432
    1W        W48606  20.829  28.739   7.401 -0.2625 -0.0717 -0.0302
    1W        W48607   0.198  25.784   2.956 -0.3047 -0.4907 -0.1927
    1W        W48608  22.609   5.287   7.222  0.1434 -0.2329  0.1183
    1W        W48609  21.896  19.415   1.676  0.1472 -0.1740  0.2515
    1W        W48610  27.479  20.169   1.203  0.0077 -0.1937 -0.0521
    1W        W48611   2.901  13.240   7.197  0.3320  0.1370  0.0986
    1W        W48612   9.301  27.188   1.871  0.0312 -0.1149  0.1753
    1W        W48613   3.945  16.275   8.394 -0.0709  0.2087 -0.0345
    1W        W48614   5.998  14.731   1.563 -0.0952 -0.1265 -0.0609
    1W        W48615  16.716  23.126   6.694 -0.0052 -0.1687  0.2380
    1W        W48616  15.275  17.566   8.770 -0.0926 -0.0945  0.1316
    1W        W48617  17.217  15.112   0.016  0.1631  0.1058 -0.0261
    1W        W48618  15.369  26.502   6.957 -0.1612  0.0569 -0.2410
    1W        W48619   5.264   8.103   8.221 -0.0461  0.0466 -0.1587
    1W        W48620  13.619  23.637   7.340 -0.2616 -0.0833  0.1308
    1W        W48621  23.490   7.661   2.040  0.2032  0.1849 -0.2921
    1W        W48622  20.200   2.598   2.674  0.0415  0.0984  0.1003
    1W        W48623  24.165  22.113   7.545 -0.2502  0.1389 -0.1431
    1W        W48624  18.021  18.184   1.958 -0.1842 -0.0759 -0.0027
    1W        W48625   6.564   5.071   3.688 -0.1863  0.4415 -0.0993
    1W        W48626  28.740  25.571   1.784  0.0584 -0.3330 -0.3195
    1W        W48627  10.113  13.965   0.140  0.2437 -0.1265 -0.0285
    1W        W48628  23.035  26.724   8.139 -0.5206 -0.0467  0.1084
    1W        W48629   3.837  14.509   0.410  0.0095 -0.1126  0.0319
    1W        W48630  21.358  15.930   0.709 -0.2059 -0.0472  0.0065
    1W        W48631   7.511  27.668   7.989 -0.1019  0.1491 -0.5383
    1W        W48632  17.041   8.666   7.118 -0.0588  0.1193 -0.1760
    1W        W48633  19.627  25.751   1.387  0.2254  0.1184  0.1142
    1W        W48634  13.382   6.259   8.377 -0.0183 -0.0029  0.1015
    1W        W48635  23.976  22.011   1.989  0.2770 -0.0540 -0.1248
    1W        W48636  23.361  13.418   7.975 -0.1582 -0.0216 -0.1253
    1W        W48637  28.608  14.874   0.268  0.0312  0.0208  0.2020
    1W        W48638  28.078  14.274   7.815  0.0705  0.2059  0.2738
    1W        W48639  22.691  27.017   1.061 -0.0225  0.2440 -0.0797
    1W        W48640   6.878   6.956   2.612  0.2997 -0.1050 -0.2525
    1W        W48641   8.554  16.514   1.370  0.1845  0.0335 -0.0479
    1W        W48642   0.978   1.470   2.050  0.3096 -0.0316  0.2055
    1W        W48643  24.055   5.129   2.349 -0.0266  0.0456 -0.3031
    1W        W48644  19.075  17.526   1.223 -0.0554  0.0400 -0.1766
    1W        W48645  22.831  28.906   7.538 -0.3881  0.3235  0.2678
    1W        W48646  24.884  29.883   3.547 -0.0143  0.2139  0.0563
    1W        W48647  15.321   3.647   8.908  0.2685 -0.0552 -0.1531
    1W        W48648  13.418  26.686   0.793 -0.0360  0.1074 -0.1284
    1W        W48649  14.318   5.164   2.883 -0.0983 -0.0824 -0.0082
    1W        W48650   8.416   4.169   3.082  0.1431  0.1192  0.2070
    1W        W48651  26.793  12.524   2.083 -0.1188 -0.1457 -0.0189
    1W        W48652  19.447  27.225   6.848 -0.1742  0.1959  0.0085
    1W        W48653  29.624   4.974   0.625  0.1183 -0.1914 -0.1531
    1W        W48654  12.697  15.853   1.593 -0.1936  0.0468  0.1221
    1W        W48655   0.606  19.120   0.251  0.2269 -0.2328  0.1037
    1W        W48656  18.231   3.992   1.077 -0.0767 -0.0284 -0.1154
    1W        W48657   6.655   2.848   0.804 -0.0276  0.0995 -0.2742
    1W        W48658   3.241   1.806   0.278  0.1887 -0.0593  0.2014
    1W        W48659  18.907  23.004   8.912 -0.0073 -0.0782 -0.1560
    1W        W48660   2.181  20.381   1.176  0.0298  0.1221  0.1942
    1W        W48661  10.868  17.100   0.359  0.1148  0.2243  0.1131
    1W        W48662  10.520   2.638   8.210 -0.2881 -0.0772 -0.3363
    1W        W48663  24.159  29.103   7.478  0.0834  0.1185  0.1447
    1W        W48664  20.872  20.489   6.649 -0.2429  0.1160 -0.4578
    1W        W48665  26.919  24.056   9.213 -0.2245  0.3099  0.0466
    1W        W48666  17.070  17.408   5.651  0.0302  0.0901  0.1193
    1W        W48667  27.266  20.687   1.073 -0.0458  0.3159  0.2518
    1W        W48668  15.911  14.801   8.565  0.1945  0.0360  0.0759
    1W        W48669  11.509   0.900   0.532 -0.0724  0.2247 -0.1231
    1W        W48670  15.004   9.274   7.465  0.0135  0.1743 -0.0833
    1W        W48671   2.102   6.451   9.205  0.4080 -0.0767 -0.0294
    1W        W48672  11.942  29.875   1.057  0.1088  0.0867  0.0248
    1W        W48673  28.101  15.207   8.874  0.0781  0.0838 -0.0006
    1W        W48674  27.762  19.157   7.309  0.2083 -0.1827 -0.0153
    1W        W48675   9.000  16.891   0.607  0.0707 -0.2074  0.0895
    1W        W48676  21.847   9.916   7.386  0.1305  0.0573  0.0303
    1W        W48677  29.878  20.350   6.854 -0.2119 -0.1733  0.4745
    1W        W48678  21.298  27.977   0.683 -0.3602 -0.0104 -0.2397
    1W        W48679  22.245  25.878   0.578  0.4417 -0.3543 -0.1569
    1W        W48680  29.174  10.865   0.686  0.1675 -0.0928 -0.1863
    1W        W48681  28.799  28.413   2.464 -0.0861 -0.2632  0.1662
    1W        W48682  16.723  24.473   8.847  0.5676  0.2250 -0.2566
    1W        W48683   4.807  18.101   8.986  0.3491 -0.1137  0.1409
    1W        W48684   0.526  30.353   9.041 -0.4018 -0.3420  0.0661
    1W        W48685   5.339   6.109   7.516 -0.0772 -0.1251 -0.0828
    1W        W48686  13.247   9.430   1.366  0.0540 -0.3970  0.0095
    1W        W48687   6.423   5.843   2.278 -0.0734  0.1566  0.2379
    1W        W48688   5.649   5.990   3.464 -0.2617 -0.1798 -0.0056
    1W        W48689  18.155  21.161   7.891 -0.0402  0.1005  0.2817
    1W        W48690  14.596  20.687   1.862  0.0701 -0.2477 -0.1608
    1W        W48691  11.668  21.223   0.025 -0.1328  0.0373 -0.1335
    1W        W48692  15.967   9.492   9.004 -0.0600  0.0607  0.0686
    1W        W48693  13.340   8.796   7.312 -0.2899  0.3493 -0.4440
    1W        W48694   7.370  27.376   1.920 -0.0271 -0.4320  0.1404
    1W        W48695   5.824   7.498   2.324  0.0111  0.3402  0.1180
    1W        W48696  14.418   8.084   6.175  0.2893  0.1291 -0.2053
    1W        W48697  13.492   8.305   8.747  0.2287 -0.1795  0.2430
    1W        W48698  15.222   2.238   6.306  0.1940 -0.1808 -0.1701
    1W        W48699   6.644  17.402   1.013 -0.0055 -0.0363  0.0024
    1W        W48700   5.387  30.226   3.253  0.3098  0.0964  0.0235
    1W        W48701  28.434  19.518   6.358  0.0713 -0.2847  0.1208
    1W        W48702   6.428  10.811   7.561 -0.1170 -0.1056 -0.0227
    1W        W48703   4.398   7.026   1.299 -0.1021  0.0235 -0.1125
    1W        W48704   1.350  23.337   0.468  0.0329  0.2545  0.0568
    1W        W48705  24.387  24.635   2.462 -0.6198  0.5171 -0.1924
    1W        W48706  30.216   5.025   0.312  0.0130  0.0707 -0.0249
    1W        W48707   9.188   8.686   2.262  0.0380  0.1324  0.1354
    1W        W48708   1.675  15.256   0.559 -0.3238 -0.5707 -0.0597
    1W        W48709  24.335   5.295   1.145 -0.1691 -0.0477  0.3691
    1W        W48710  28.404  18.789   0.489 -0.2069  0.0081 -0.0245
    1W        W48711   1.110  20.963   9.071 -0.0404  0.1110  0.1868
    1W        W48712  22.371  17.845   7.174 -0.1491 -0.0054  0.4469
    1W        W48713   7.523  20.370   1.087 -0.2906  0.0214 -0.3196
    1W        W48714  18.522   0.961   7.050 -0.0991 -0.0572  0.1698
    1W        W48715  29.522  28.073   7.828 -0.2224  0.2251 -0.5472
    1W        W48716  21.488   1.418   2.123  0.4050 -0.0361  0.0033
    1W        W48717  11.354  14.699   8.234 -0.2744  0.2281  0.2009
    1W        W48718   4.858   3.918   0.974 -0.1023  0.2071 -0.4169
    1W        W48719  13.248  21.153   8.318 -0.3013 -0.1824  0.1929
    1W        W48720  11.258  20.449   8.893  0.0782 -0.0028 -0.1750
    1W        W48721  14.438  15.622   2.409  0.0513 -0.2267 -0.3224
    1W        W48722   5.327  24.811   7.432  0.0013  0.0213  0.0699
    1W        W48723   4.756  27.644   1.037 -0.0949  0.0587 -0.1326
    1W        W48724  24.148  25.284   0.832 -0.1170  0.0858 -0.0144
    1W        W48725  12.580   6.199   8.933 -0.0802  0.0159 -0.1257
    1W        W48726   0.289   9.994   0.575 -0.1864 -0.0066  0.2969
    1W        W48727  10.279  29.905   8.526  0.0785  0.2563 -0.0096
    1W        W48728  30.295  14.997   1.581  0.2685 -0.1142  0.1385
    1W        W48729  29.372   0.330   8.072 -0.0741 -0.2161 -0.0045
    1W        W48730  22.077  29.216   7.204  0.1161 -0.0151  0.1765
    1W        W48731  24.232   7.441   2.008 -0.2546  0.1222 -0.1966
    1W        W48732  30.222   9.795   8.413 -0.3310 -0.2527 -0.0972
    1W        W48733  20.433   7.745   0.235  0.0511  0.0544  0.0392
    1W        W48734   1.636  23.697   1.324  0.1613 -0.2970  0.2115
    1W        W48735  19.981   9.755   1.399 -0.2718 -0.1081  0.2441
    1W        W48736   1.723  28.372   1.633 -0.0647 -0.1287 -0.0983
    1W        W48737   5.908  11.833   8.906  0.2462  0.1014 -0.2732
    1W        W48738   1.386   3.217   7.684  0.0222  0.2877  0.0861
    1W        W48739  13.628  21.386   1.030 -0.0517  0.0906 -0.3037
    1W        W48740  15.962   9.162   0.553  0.0115  0.2725 -0.0716
    1W        W48741  13.742   8.334   7.004  0.1684 -0.2120 -0.0165
    1W        W48742   6.099  20.124   7.051 -0.1769  0.2713  0.1099
    1W        W48743  16.770  15.240   0.316  0.0752  0.1034  0.0001
    1W        W48744  10.202  27.757   3.060 -0.1114 -0.0717  0.1796
    1W        W48745  28.177  29.917   3.041 -0.1499 -0.1735 -0.3100
    1W        W48746  23.250  15.477   9.204 -0.1055  0.1215 -0.0553
    1W        W48747  11.739  11.017   0.240  0.2144 -0.2780 -0.1405
    1W        W48748  17.025   1.960   2.507 -0.1759 -0.1538 -0.2408
    1W        W48749  30.308  18.696   8.231  0.0473  0.1735 -0.0184
    1W        W48750  12.526  24.103   9.124  0.1412 -0.0713  0.1064
    1W        W48751  23.202  16.869   9.261  0.1541 -0.2036 -0.0723
    1W        W48752  25.134   1.121   7.771  0.0893  0.2666 -0.2002
    1W        W48753  22.325   6.958   8.240 -0.1727  0.2001  0.0666
    1W        W48754  19.394  22.096   0.726  0.2382  0.0328 -0.2024
    1W        W48755   6.458   7.686   2.938 -0.1413  0.1226  0.3082
    1W        W48756   4.812  19.504   7.039  0.1375  0.0183 -0.2213
    1W        W48757  28.664  27.722   1.508 -0.0051 -0.2303  0.4330
    1W        W48758  15.544  11.000   2.539 -0.1746  0.1554 -0.0442
    1W        W48759  18.203   7.771   5.361  0.0018 -0.0061  0.0310
    1W        W48760   4.041  19.170   0.260 -0.0495  0.1027  0.1759
    1W        W48761  27.296  19.179   5.683 -0.3371 -0.5102 -0.0324
    1W        W48762  15.122  18.117   0.175  0.2031 -0.0696  0.0143
    1W        W48763   7.797  25.197   2.130  0.0802 -0.0951 -0.2444
    1W        W48764   3.567  13.958   0.567  0.2565 -0.0421 -0.1992
    1W        W48765  26.294  17.722   6.714 -0.1650 -0.0195  0.1095
    1W        W48766  21.500  26.194   2.693  0.2787  0.2695 -0.0019
    1W        W48767  24.756   2.984   2.289  0.3656 -0.2304  0.0814
    1W        W48768   8.343   3.235   0.478 -0.2095 -0.1960 -0.1542
    1W        W48769  10.577  13.857   0.282 -0.2298 -0.0594  0.0289
    1W        W48770  22.881  11.908   7.053  0.4270  0.2240 -0.3994
    1W        W48771   5.516  13.550   7.911  0.3864 -0.1664  0.1055
    1W        W48772   3.823   5.287   2.864  0.2778  0.0644 -0.1652
    1W        W48773   1.129  28.342   1.015 -0.2882  0.2240  0.1270
    1W        W48774  25.402  15.571   2.395  0.1941  0.0698 -0.2126
    1W        W48775   0.989  21.755   8.886 -0.2333 -0.2433 -0.0451
    1W        W48776  15.876  21.635   0.498 -0.0330  0.1514 -0.2864
    1W        W48777  18.534   0.047   6.815  0.1161 -0.2622  0.1708
    1W        W48778   8.661  13.667   7.757 -0.0890 -0.0632  0.1598
    1W        W48779  20.925   8.651   6.320 -0.3431  0.0785  0.0719
    1W        W48780  11.244   0.276   1.164 -0.2153 -0.1678  0.1879
    1W        W48781  18.551   0.357   0.426  0.1371 -0.2933 -0.0724
    1W        W48782  13.128  12.040   6.689  0.0570 -0.1199  0.1788
    1W        W48783  15.937  26.138   0.666  0.2967  0.0144 -0.0468
    1W        W48784   6.678  19.029   1.116  0.1432  0.2641 -0.2367
    1W        W48785  11.359  24.477   7.325  0.1468 -0.0206 -0.0385
    1W        W48786   7.680   7.389   8.971 -0.2110 -0.1638  0.1662
    1W        W48787   4.649   2.375   1.565 -0.1378 -0.0631  0.1369
    1W        W48788  27.888  23.180   7.585  0.0025 -0.0631 -0.2108
    1W        W48789  27.905  16.221   8.373 -0.2749 -0.3971  0.0761
    1W        W48790  18.313  28.897   2.425  0.0940 -0.1230  0.0015
    1W        W48791   3.784  19.173   0.839 -0.1159  0.2578 -0.0271
    1W        W48792   1.961  17.198   1.286  0.2790  0.0977  0.0886
    1W        W48793  23.684   8.766   1.892  0.0862 -0.1576 -0.1364
    1W        W48794  23.553  27.585   7.771 -0.3141  0.0206 -0.2404
    1W        W48795  11.866   2.471   7.086 -0.0352 -0.0808 -0.1531
    1W        W48796  21.963  22.041   8.314 -0.0019 -0.0117  0.1742
    1W        W48797  20.493  29.844   1.409 -0.1933  0.2938  0.0944
    1W        W48798  27.666  28.780   3.631  0.3051  0.2603 -0.3111
    1W        W48799  19.822   7.816   7.152  0.2179 -0.3306 -0.0687
    1W        W48800  22.731   5.068   7.852  0.3543  0.1915  0.0661
    1W        W48801   7.167  29.527   7.373  0.1082  0.1387 -0.0985
    1W        W48802  12.045  16.956   0.029  0.3118  0.2129 -0.3011
    1W        W48803  20.061  23.742   8.911  0.0777 -0.1556 -0.0786
    1W        W48804   4.113   3.816   7.358 -0.0465 -0.1603 -0.0107
    1W        W48805  26.132  21.033   8.909 -0.2998 -0.1030 -0.0636
    1W        W48806   6.999   5.858   2.953  0.1303 -0.1522 -0.1344
    1W        W48807   3.069   1.698   1.563 -0.3215  0.0468 -0.1431
    1W        W48808   3.844   2.248   1.627 -0.4453  0.1766  0.1235
    1W        W48809  14.879   5.264   6.993  0.0002 -0.1676 -0.0105
    1W        W48810  17.256   9.460   1.716 -0.1523  0.0820 -0.3458
    1W        W48811  23.153  13.425   6.938 -0.2402  0.0912  0.1596
    1W        W48812  15.823   8.865   2.093  0.1008 -0.0412 -0.0054
    1W        W48813  26.587  23.628   7.483 -0.2189 -0.0291  0.0364
    1W        W48814  29.344  19.833   9.145  0.0519 -0.0768 -0.0707
    1W        W48815  29.101   7.639   9.105  0.5166  0.2595 -0.1872
    1W        W48816  27.833   8.197   2.423 -0.0040 -0.3600 -0.3712
    1W        W48817   0.348   4.965   9.267 -0.0974  0.0931 -0.0011
    1W        W48818   5.000  25.774   8.254  0.0849  0.2786  0.0843
    1W        W48819   1.995  25.883   0.128  0.1061  0.0236  0.0565
    1W        W48820   3.145   1.429   7.491 -0.0012  0.1591 -0.0114
    1W        W48821  14.031  13.218   2.115 -0.1830 -0.2777  0.1339
    1W        W48822  19.650  21.433   1.253  0.0315  0.1131  0.1214
    1W        W48823  27.718  20.488   9.089  0.0717  0.1048 -0.0576
    1W        W48824   5.016  11.571   7.511  0.0580 -0.0608 -0.1427
    1W        W48825   0.838  11.153   8.061 -0.0385  0.3350 -0.1246
    1W        W48826   1.919   5.846   6.663 -0.1131  0.2187  0.0548
    1W        W48827  29.487  17.903   8.624  0.1738  0.1006  0.0527
    1W        W48828  29.903  15.157   6.536 -0.1300  0.0654  0.2268
    1W        W48829  15.558  26.752   2.595 -0.0663  0.1983 -0.2347
    1W        W48830  23.812   6.823   1.856  0.0229 -0.2813 -0.1562
    1W        W48831  21.470  25.644   1.843 -0.5192 -0.0501  0.0966
    1W        W48832   5.952   0.723   7.542  0.2890  0.0539 -0.1037
    1W        W48833  24.587   7.267   7.985  0.2258  0.1378 -0.1192
    1W        W48834  19.653  19.198   1.304 -0.2591  0.0642  0.0345
    1W        W48835  15.805   7.007   6.108  0.1901 -0.3749 -0.0144
    1W        W48836  10.791  11.284   7.439  0.0512 -0.6089  0.2880
    1W        W48837  21.506  11.116   0.904  0.1173  0.1940  0.1239
    1W        W48838  25.798   0.645   1.676  0.2397  0.2747 -0.1254
    1W        W48839  11.054  14.720   1.747  0.0873 -0.2474 -0.0307
    1W        W48840   8.161  29.854   7.421 -0.0284  0.0678  0.0022
    1W        W48841  22.642   5.784   1.775 -0.1422 -0.0959 -0.0199
    1W        W48842   7.118  16.838   7.810  0.1863  0.2125 -0.1581
    1W        W48843  15.169  21.870   8.644  0.1352  0.0818 -0.0156
    1W        W48844  22.760   4.146   1.249 -0.0017  0.4136  0.4117
    1W        W48845  17.931  28.342   1.902 -0.1848  0.1989  0.3239
    1W        W48846  21.884  10.993   0.323 -0.0453 -0.1999 -0.1147
    1W        W48847  29.107  15.837   8.082  0.0317  0.1096 -0.0356
    1W        W48848  10.312  29.520   7.728  0.2130  0.0721 -0.2422
    1W        W48849   3.766   4.771   7.694  0.5370  0.1396 -0.0884
    1W        W48850  12.995  24.722   6.523 -0.0520  0.0119  0.0409
    1W        W48851   9.830   5.657   7.980  0.1375  0.0222  0.1225
    1W        W48852   9.232   0.638   1.288  0.2555 -0.1854  0.2333
    1W        W48853  11.645  10.159   8.315  0.1508 -0.1437  0.0197
    1W        W48854  18.294  21.664   9.200 -0.2088  0.2687 -0.1480
    1W        W48855   8.036  27.895   0.429  0.1816  0.3758  0.1986
    1W        W48856  11.976   7.066   1.953 -0.1065 -0.2492 -0.1628
    1W        W48857  10.022  11.728   8.110  0.1393 -0.1533  0.3496
    1W        W48858  16.144  23.108   1.828  0.1830  0.4673 -0.1347
    1W        W48859  17.873  25.843   1.413  0.2218  0.0437  0.0618
    1W        W48860   6.601  20.950   1.060  0.0288  0.4155 -0.0757
    1W        W48861  15.375  27.235   7.514  0.2825 -0.1055  0.1152
    1W        W48862  17.873  27.129   8.993  0.1637 -0.1163 -0.0791
    1W        W48863   0.564  15.304   7.571 -0.4040 -0.1233 -0.0220
    1W        W48864  15.277  17.164   0.288 -0.1875 -0.2589 -0.3495
    1W        W48865   9.965  11.179   1.398 -0.3246  0.2957 -0.3846
    1W        W48866  10.463  15.924   6.833  0.2501  0.1169  0.1520
    1W        W48867   7.691   4.078   7.808 -0.0746  0.0075  0.0215
    1W        W48868  29.704  24.537   7.543  0.1154  0.0838  0.1190
    1W        W48869  23.872  27.494   2.270  0.0941 -0.0328  0.0420
    1W        W48870  29.901   0.064   7.755 -0.1510  0.1497 -0.3113
    1W        W48871  14.567  22.079   7.761 -0.0147 -0.1535 -0.4984
    1W        W48872  28.245  30.216   2.677 -0.3164  0.0996  0.0904
    1W        W48873  23.473   7.105   7.937 -0.0174  0.1208  0.0247
    1W        W48874  17.565  15.625   2.491  0.1005 -0.1270 -0.0247
    1W        W48875  15.511  20.843   0.239 -0.1246  0.1774  0.1124
    1W        W48876  28.988   9.387   8.105 -0.1005 -0.1523 -0.2411
    1W        W48877   7.843  10.917   8.996  0.3301 -0.3182 -0.1237
    1W        W48878   7.110   9.321   3.081  0.0129  0.1062  0.1380
    1W        W48879   1.521  19.436   7.699  0.0719 -0.1272  0.0694
    1W        W48880   2.481  15.654   7.396 -0.2283  0.0374  0.0353
    1W        W48881  11.707   9.892   2.411  0.0041  0.1573 -0.1417
    1W        W48882   9.675   9.579   2.591  0.2150 -0.1020  0.0361
    1W        W48883  24.251  18.465   7.810 -0.4894 -0.0418  0.0427
    1W        W48884   8.626  26.415   1.287 -0.3740 -0.2293  0.0196
    1W        W48885   6.543  13.666   7.817  0.0759  0.0029 -0.4136
    1W        W48886  12.366   1.464   7.896  0.1073  0.0257 -0.0607
    1W        W48887   7.888  17.675   7.134  0.0158 -0.2517  0.2677
    1W        W48888   8.299   5.742   8.511 -0.1652  0.0430 -0.2057
    1W        W48889   0.736   8.400   7.423  0.1024 -0.1993  0.0921
    1W        W48890  15.419  26.705   8.218 -0.3571 -0.2950  0.0574
    1W        W48891  29.595   5.309   2.942 -0.0975 -0.4022  0.1819
    1W        W48892  12.169  11.674   3.657 -0.0297  0.4320 -0.2418
    1W        W48893   6.507  16.008   7.401 -0.0924  0.1751 -0.0869
    1W        W48894  22.931   7.257   6.596 -0.2078 -0.0935 -0.0441
    1W        W48895  14.771   1.656   1.730  0.0531 -0.0972  0.0935
    1W        W48896   0.742   5.449   8.878  0.0630  0.3456  0.2375
    1W        W48897  11.281  15.412   6.554  0.0995  0.1796  0.0585
    1W        W48898  23.413  24.868   1.945 -0.1506  0.1886 -0.1080
    1W        W48899  19.534  10.011   6.983 -0.0766  0.0056  0.0044
    1W        W48900  18.194  26.135   1.090  0.0385 -0.0037  0.1747
    1W        W48901  29.778   4.789   7.579  0.0714  0.1258 -0.0426
    1W        W48902   6.010  11.500   7.517 -0.1613  0.1039  0.0120
    1W        W48903  12.338  10.488   8.165 -0.1777 -0.0030 -0.3583
    1W        W48904  23.934   9.398   1.640  0.0809  0.0307 -0.1796
    1W        W48905   9.362  28.661   7.940 -0.0360  0.1572  0.1888
    1W        W48906  20.652  23.203   1.192  0.0202  0.2213  0.0202
    1W        W48907  26.771  14.778   8.610 -0.1202 -0.0786 -0.0296
    1W        W48908  19.253   9.672   0.216  0.6265 -0.0330  0.0003
    1W        W48909  27.691   7.946   7.354 -0.2653 -0.2082 -0.0039
    1W        W48910  15.152  21.529   8.297 -0.0126 -0.2483  0.0716
    1W        W48911   9.972   5.176   7.275 -0.4121  0.2700 -0.2523
    1W        W48912  18.796  26.937   8.775 -0.3538  0.1165 -0.1970
    1W        W48913   9.617  17.298   7.122 -0.1661  0.0747 -0.0436
    1W        W48914   3.402  16.142   8.987 -0.3751  0.1159 -0.0671
    1W        W48915  25.836   7.622   0.867  0.2161  0.0699  0.2890
    1W        W48916  14.048  22.979   8.463 -0.0972 -0.0433 -0.5678
    1W        W48917  20.710  29.201   7.581 -0.0547  0.0813  0.1619
    1W        W48918  29.762  27.923   0.087  0.2192 -0.1582  0.3633
    1W        W48919  17.994  29.556   9.197  0.0580  0.1581 -0.0096
    1W        W48920   3.853   0.775   3.860  0.2646  0.1756 -0.1451
    1W        W48921  11.771   3.925   0.030  0.1677  0.4512 -0.1622
    1W        W48922  18.692   8.259   2.215  0.2042  0.1605 -0.2323
    1W        W48923   5.928  11.987   7.498 -0.1918 -0.1623  0.1497
    1W        W48924  11.535  27.162   7.716 -0.0009 -0.2829 -0.0139
    1W        W48925  16.372  17.466   6.648 -0.0161  0.3272  0.0403
    1W        W48926  29.287  25.148   0.023  0.1880  0.1677 -0.1380
    1W        W48927   5.559   5.807   8.141  0.2206  0.1074  0.1936
    1W        W48928  22.158   3.330   1.097  0.4118  0.1250  0.0636
    1W        W48929  17.880  16.838   7.163 -0.2989  0.0762 -0.2512
    1W        W48930  16.609  12.751   7.325 -0.0520  0.0858  0.0223
    1W        W48931  17.972  15.315   8.812  0.1691 -0.2165 -0.0315
    1W        W48932  14.128   1.811   6.163 -0.1921 -0.1565  0.1661
    1W        W48933   3.955  27.570   3.227 -0.2727  0.1915 -0.2589
    1W        W48934  26.865  17.054   1.362  0.0301  0.0711  0.0341
    1W        W48935  21.569  14.285   9.115  0.0921 -0.2286  0.0691
    1W        W48936   5.756  24.827   7.811 -0.3395 -0.2245  0.0034
    1W        W48937  21.133  25.020   1.951 -0.1909  0.2589 -0.1716
    1W        W48938  15.766  26.667   6.224  0.1555  0.5076 -0.1363
    1W        W48939  17.365   0.653   1.459  0.0563 -0.1291  0.3222
    1W        W48940   4.240  30.079   2.601  0.3192 -0.1150 -0.1755
    1W        W48941  10.800   8.919   7.352  0.1484  0.0828  0.1863
    1W        W48942   5.970   4.209   0.472 -0.1016 -0.0660 -0.0485
    1W        W48943  16.951  11.046   6.269 -0.2073  0.3442  0.0427
    1W        W48944  20.081  23.042   1.389 -0.3181  0.0239 -0.4174
    1W        W48945  12.046  12.450   3.177 -0.1375 -0.0274  0.1696
    1W        W48946  16.770  26.742   6.366 -0.2543 -0.1604 -0.0899
    1W        W48947   3.551  10.549   7.326  0.3272 -0.2426 -0.0088
    1W        W48948  23.819   2.880   3.071 -0.0590  0.0284  0.3789
    1W        W48949   7.465  19.923   0.877 -0.0804 -0.0170  0.1374
    1W        W48950  18.572  22.083   1.604 -0.1443  0.0484 -0.0409
    1W        W48951  16.876  21.825   8.363 -0.1638  0.2232 -0.0419
    1W        W48952  12.560  19.653   1.584 -0.1842  0.1374  0.0783
    1W        W48953  17.679  16.991   6.752 -0.0680  0.1890 -0.0356
    1W        W48954  15.888  28.343   9.073 -0.1820  0.1790 -0.1891
    1W        W48955   0.285   3.563   2.388 -0.0371  0.0111  0.3018
    1W        W48956  22.794  15.019   8.125  0.0368  0.0742 -0.1518
    1W        W48957  27.805  22.498   1.033 -0.4508 -0.2571  0.2532
    1W        W48958  27.311  10.109   6.275  0.0613 -0.0383 -0.0380
    1W        W48959  22.664   7.558   6.291 -0.0546  0.3403  0.1610
    1W        W48960  20.075  21.458   0.920  0.1218  0.0445  0.1097
    1W        W48961  28.363   0.520   1.908  0.0983 -0.0458 -0.0464
    1W        W48962   8.790  14.626   7.716  0.3168  0.1191  0.0454
    1W        W48963   7.579  15.082   0.214 -0.1031  0.3957  0.0942
    1W        W48964   7.594  27.719   7.107 -0.2145  0.1889 -0.0149
    1W        W48965   1.873   0.783   2.362  0.2571  0.2321  0.2336
    1W        W48966  27.104  19.090   9.130 -0.1336  0.2470 -0.1976
    1W        W48967   2.574  10.874   2.775 -0.1657 -0.4122 -0.1326
    1W        W48968   5.002  23.780   7.986 -0.0290 -0.0300 -0.1640
    1W        W48969  17.861   9.222   7.232 -0.1638  0.0706  0.1437
    1W        W48970   9.098  23.403   5.968 -0.1210  0.4616 -0.2615
    1W        W48971  27.089   8.903   0.865  0.3395  0.2120 -0.0265
    1W        W48972  10.749   9.179   1.995  0.0368 -0.0781 -0.1207
    1W        W48973   3.614  19.497   0.420 -0.2242 -0.1781  0.0732
    1W        W48974  15.304  14.335   7.244 -0.1406  0.0490 -0.1205
    1W        W48975  17.632   3.574   7.980  0.0209  0.1031 -0.1106
    1W        W48976  18.382   3.857   1.532 -0.0254 -0.1108 -0.0573
    1W        W48977  25.562  29.062   7.636  0.0853 -0.2678 -0.0790
    1W        W48978  21.023  24.765   8.990  0.0678 -0.1697 -0.0580
    1W        W48979   9.916  15.447   7.062  0.1759  0.3576  0.0268
    1W        W48980  28.325  26.727   8.071 -0.1852  0.1084  0.1311
    1W        W48981  19.456  29.722   7.685 -0.2782  0.1405  0.2679
    1W        W48982  19.807   8.074   6.644  0.0227  0.0289  0.2115
    1W        W48983  14.147  12.996   0.783  0.1290 -0.1441 -0.0036
    1W        W48984  13.656  18.505   8.178 -0.1922 -0.0171  0.0847
    1W        W48985  20.860  26.449   0.057 -0.2096 -0.3755 -0.0380
    1W        W48986   5.389   1.102   0.694 -0.1096  0.0904  0.1854
    1W        W48987  19.832   0.916   0.505 -0.1884  0.2909 -0.1044
    1W        W48988   7.639  10.396   7.113 -0.0299  0.0864 -0.1814
    1W        W48989   2.426   9.337   1.084 -0.1257  0.1682 -0.0907
    1W        W48990  27.773  20.684   0.346 -0.3044 -0.1085 -0.1367
    1W        W48991   4.402  10.506   8.584  0.1180  0.0443  0.1211
    1W        W48992  25.624  12.318   1.447  0.1383  0.0189 -0.0636
    1W        W48993  21.538   7.564   8.190 -0.1187  0.0521 -0.0352
    1W        W48994  21.187  28.079   8.046 -0.0543 -0.0198  0.0544
    1W        W48995  10.165  22.710   1.050 -0.2107  0.2098 -0.0839
    1W        W48996   9.659  23.635   8.205  0.0822  0.0205  0.1420
    1W        W48997   2.923  24.217   7.907  0.1327  0.2480 -0.0505
    1W        W48998  25.124  20.020   7.610 -0.0570  0.1109  0.0729
    1W        W48999  13.798  13.050   8.772 -0.1594  0.1318 -0.1005
    1W        W49000  29.534  29.829   0.666  0.2278  0.3472 -0.1836
    1W        W49001  25.408  21.700   1.844  0.0116 -0.0923  0.1529
    1W        W49002  23.226   2.978   2.460  0.0226  0.1960  0.2479
    1W        W49003  14.705  18.788   5.953 -0.0570 -0.0327  0.0003
    1W        W49004  30.108   8.264   9.220 -0.3172  0.1424  0.0417
    1W        W49005  11.525   3.525   0.451  0.4086  0.1887  0.0170
    1W        W49006  24.722   5.557   7.160 -0.1043 -0.1472  0.0901
    1W        W49007   3.421   6.582   0.990 -0.0497  0.0610 -0.3126
    1W        W49008  27.070  19.695   7.423 -0.2164 -0.2818  0.3911
    1W        W49009   5.555   6.527   0.676 -0.0096  0.2733  0.2161
    1W        W49010  15.497   2.400   2.572 -0.0536 -0.2031  0.1145
    1W        W49011   3.281  14.727   9.170 -0.1330 -0.1140  0.1342
    1W        W49012   3.238  26.281   6.890  0.1693 -0.1754  0.0021
    1W        W49013  20.817  21.828   7.050  0.1357  0.0565  0.1677
    1W        W49014  20.761  10.808   2.088 -0.2171  0.1104 -0.1333
    1W        W49015   9.067  22.683   8.575 -0.0443  0.1794  0.0405
    1W        W49016  13.116  18.299   1.866 -0.2131  0.4721 -0.1111
    1W        W49017  29.575  13.856   7.063 -0.1872 -0.0884  0.0173
    1W        W49018   8.799   2.931   7.982 -0.1164  0.1171  0.3265
    1W        W49019  23.667  18.873   1.431  0.1066 -0.0321  0.0867
    1W        W49020  15.072  11.407   7.190  0.1140 -0.3097  0.1239
    1W        W49021   6.001  18.667   0.330  0.4277 -0.0646  0.2050
    1W        W49022  13.497  18.595   2.058  0.0019  0.0270  0.0256
    1W        W49023  25.479  17.941   0.514 -0.1616  0.0657 -0.0936
    1W        W49024  20.679   7.460   9.210  0.3352  0.2076 -0.1465
    1W        W49025  30.060  18.753   7.816  0.2716  0.0768  0.0297
    1W        W49026  12.442  12.138   3.612 -0.2463 -0.0771 -0.0424
    1W        W49027  21.798  11.154   1.725  0.0225  0.0411 -0.3257
    1W        W49028  21.107  10.597   6.235 -0.0522  0.3248 -0.0509
    1W        W49029  25.882   4.868   1.016  0.3408 -0.1344  0.0037
    1W        W49030  28.908  13.976   6.482  0.0148 -0.1218 -0.1653
    1W        W49031  21.949  28.611   0.005  0.1896 -0.2159  0.0647
    1W        W49032  24.158  10.980   1.271  0.3489  0.2358 -0.4735
    1W        W49033   8.929   1.716   0.372  0.0020 -0.1171  0.0795
    1W        W49034  12.292  15.641   0.464  0.0591  0.3044  0.0313
    1W        W49035  25.112   2.081   1.814 -0.3364  0.1976  0.1697
    1W        W49036   0.020  27.218   7.506  0.1438  0.2175  0.0417
    1W        W49037  28.184  11.878   0.912  0.1913  0.0288  0.2486
    1W        W49038  18.525   4.419   2.659  0.1031  0.1526 -0.3314
    1W        W49039   1.077  17.434   1.485 -0.1746  0.2392 -0.0466
    1W        W49040   7.335   1.135   2.556 -0.2843  0.2228  0.1285
    1W        W49041  11.247   1.026   6.874 -0.2757  0.1795 -0.2861
    1W        W49042   6.706   2.545   3.795 -0.1181  0.2628  0.0978
    1W        W49043   6.422   7.971   8.408 -0.1624 -0.0968  0.0146
    1W        W49044  29.897  23.577   1.808 -0.2571 -0.1808  0.0860
    1W        W49045  11.913  10.387   9.128  0.0055 -0.0600 -0.0756
    1W        W49046  19.616  11.408   8.475 -0.1246 -0.1561  0.0056
    1W        W49047   2.338  10.755   0.211  0.1945 -0.0044  0.0102
    1W        W49048   2.860  23.564   1.089 -0.3237  0.0543 -0.1369
    1W        W49049  28.292   1.121   3.964  0.0406  0.0915 -0.1758
    1W        W49050   4.455  10.148   8.182  0.1050  0.2022  0.2722
    1W        W49051  24.770  20.710   7.780 -0.1405  0.4570  0.1419
    1W        W49052  27.819  19.381   1.484 -0.2854  0.1864 -0.0919
    1W        W49053  26.352   0.849   7.421 -0.2487  0.1137 -0.0487
    1W        W49054  29.100   3.470   9.253  0.1331  0.0279 -0.1198
    1W        W49055  23.572   8.128   1.966  0.0247 -0.1917 -0.0531
    1W        W49056  10.576  17.997   8.422 -0.0427  0.0755 -0.0731
    1W        W49057  29.820  22.356   1.934  0.1871 -0.1247  0.2122
    1W        W49058  14.462   1.943   0.249 -0.1220 -0.0454  0.0805
    1W        W49059  17.037  22.272   5.790  0.0012  0.0988 -0.1089
    1W        W49060   1.098   6.155   2.803 -0.0298  0.2732 -0.3311
    1W        W49061  22.597   3.367   0.908 -0.2112  0.4582  0.0533
    1W        W49062  10.018  30.345   8.535  0.2218 -0.2551 -0.1190
    1W        W49063  27.514  12.348   1.160 -0.0213 -0.0845  0.1133
    1W        W49064  13.882  18.396   7.561  0.1091  0.2089 -0.1141
    1W        W49065  28.001  29.010   2.291  0.1933 -0.0481  0.1659
    1W        W49066   0.494   1.899   2.685  0.3405 -0.1512 -0.0189
    1W        W49067  16.840   0.656   1.486 -0.2063  0.4523  0.1019
    1W        W49068  16.467  18.728   8.836 -0.3176 -0.3021  0.2489
    1W        W49069   2.188  28.494   7.923 -0.2714  0.0430 -0.3157
    1W        W49070  19.403  28.927   1.299  0.0521 -0.1621 -0.3926
    1W        W49071   9.437  11.149   1.742  0.0797 -0.1146  0.1529
    1W        W49072   8.329  12.023   1.570  0.1079  0.0728 -0.2455
    1W        W49073   1.288  26.701   6.867  0.1394  0.0289  0.2187
    1W        W49074  19.316  21.228   0.414 -0.2467 -0.4553 -0.0118
    1W        W49075   0.564  27.379   1.726  0.2821  0.0715  0.1755
    1W        W49076  11.973   0.132   6.144 -0.2906  0.0214  0.0225
    1W        W49077   1.709  19.532   8.818 -0.0827  0.1497 -0.0234
    1W        W49078  12.953   1.608   3.001  0.2946  0.0394  0.0807
    1W        W49079   8.882  19.001   8.595  0.1026  0.3454 -0.1754
    1W        W49080   1.428  27.641   0.568  0.0020  0.0013  0.1563
    1W        W49081  27.437  13.193   2.069 -0.0179  0.0116  0.0326
    1W        W49082  16.958  22.657   6.792 -0.0026 -0.1012  0.0606
    1W        W49083  12.201  11.113   2.524  0.2000  0.1677  0.0323
    1W        W49084  29.047  12.270   7.098  0.1553  0.1232 -0.2142
    1W        W49085   6.688   0.359   1.807 -0.3422 -0.2598 -0.4733
    1W        W49086  21.577  28.044   6.706  0.3739  0.1365  0.2781
    1W        W49087  11.146  14.291   2.333  0.3744  0.0562  0.2030
    1W        W49088  19.516   4.760   0.431 -0.1980  0.0879  0.1394
    1W        W49089  17.342  16.326   2.781  0.2046 -0.2085  0.1344
    1W        W49090  11.574  29.766   0.151  0.0174 -0.0048 -0.1718
    1W        W49091   0.161   5.374   7.476 -0.0461 -0.1006 -0.1464
    1W        W49092  16.444  11.259   1.981 -0.1036 -0.1105 -0.0004
    1W        W49093  24.177  22.491   6.622 -0.3112  0.2479 -0.1560
    1W        W49094   0.522   2.233   8.474 -0.1501 -0.0107 -0.0595
    1W        W49095  26.007  14.248   2.376 -0.2651  0.1332  0.0909
    1W        W49096  20.059   1.079   3.177 -0.2251 -0.2094  0.1160
    1W        W49097  27.962  26.443   1.957  0.2433  0.1632 -0.0613
    1W        W49098   8.546   7.811   0.430  0.0026 -0.2462  0.1115
    1W        W49099  20.051  17.303   0.426  0.0039 -0.0729 -0.0546
    1W        W49100  25.962  27.930   0.897 -0.1108 -0.0748  0.5474
    1W        W49101  18.010  17.537   7.786  0.0878  0.1850 -0.1453
    1W        W49102  18.009   1.241   2.992  0.0261 -0.1531 -0.0391
    1W        W49103   4.861   2.454   0.691  0.1731 -0.0028 -0.1605
    1W        W49104  19.307  28.235   7.492 -0.0367 -0.2348 -0.0191
    1W        W49105  14.343  12.714   7.045 -0.0163  0.1791 -0.1292
    1W        W49106  17.722   6.983   2.380 -0.2099  0.0783  0.0495
    1W        W49107  20.589  10.692   5.827 -0.0785  0.1148 -0.0554
    1W        W49108  13.107  29.886   8.218 -0.0669 -0.0077 -0.1809
    1W        W49109  22.578  12.529   8.233  0.0252  0.2767  0.1862
    1W        W49110   8.375  19.807   2.841 -0.0407  0.0228  0.1777
    1W        W49111   2.044  29.552   2.277  0.0094 -0.1124  0.0823
    1W        W49112  13.298  18.289   6.373  0.0380  0.3340  0.1881
    1W        W49113  15.446   0.109   8.429 -0.3670  0.2054 -0.0796
    1W        W49114   3.248  29.783   7.411  0.4341  0.3244  0.0227
    1W        W49115  19.887  15.291   1.095 -0.2173  0.0008 -0.2930
    1W        W49116  25.410  18.491   8.211  0.1854 -0.1850  0.1002
    1W        W49117  18.844  10.538   1.310  0.1328 -0.0518 -0.2457
    1W        W49118  10.658   5.956   8.068 -0.0979 -0.1462 -0.3109
    1W        W49119  28.543   5.359   8.771 -0.2987 -0.1641 -0.0814
    1W        W49120  19.273  19.561   1.509 -0.0099  0.1441  0.2053
    1W        W49121  12.484  23.318   0.307 -0.0272  0.1814  0.0804
    1W        W49122   9.450  19.394   5.919  0.1654 -0.1974  0.0353
    1W        W49123  30.138  10.038   7.738  0.0512 -0.3194  0.0672
    1W        W49124  11.013   5.213   6.344  0.2510  0.0652 -0.2045
    1W        W49125   2.068  26.916   8.082 -0.0766  0.1932  0.1036
    1W        W49126  23.525  18.010   8.432 -0.0199 -0.0322 -0.0620
    1W        W49127  26.164  26.569   0.946  0.0125 -0.1619  0.0699
    1W        W49128  27.238  29.717   9.225 -0.0669  0.1170  0.0205
    1W        W49129  27.365  27.000   0.322 -0.0521 -0.2102  0.1264
    1W        W49130   8.099  27.990   9.158 -0.0857 -0.2072  0.0748
    1W        W49131  14.847  11.711   0.700  0.1986  0.0110 -0.1749
    1W        W49132   5.854  21.275   6.288 -0.1806 -0.0212  0.0736
    1W        W49133   1.555  23.146   2.447  0.0828 -0.0171 -0.2111
    1W        W49134  12.681   5.896   0.358 -0.0058 -0.2774 -0.0194
    1W        W49135  19.911  27.843   0.192  0.2224  0.3399  0.1069
    1W        W49136  19.561   1.745   9.200  0.4534 -0.2581 -0.0206
    1W        W49137  15.854   8.954   8.759  0.0468 -0.1191 -0.0013
    1W        W49138  27.436   3.039   2.926 -0.1468  0.3988  0.1062
    1W        W49139  12.937  20.168   7.764  0.1780  0.1611 -0.3990
    1W        W49140  10.608   7.493   2.654 -0.1075 -0.0947  0.2180
    1W        W49141  26.634   3.176   0.681  0.0718  0.0776 -0.0819
    1W        W49142  21.390   9.961   8.490 -0.1899 -0.0499  0.0219
    1W        W49143  18.118   6.185   8.619  0.0233  0.1946 -0.2428
    1W        W49144   6.649  10.432   7.204  0.1905  0.1845  0.0647
    1W        W49145  17.574  24.306   6.904  0.2995  0.0929  0.1779
    1W        W49146  19.524  14.013   7.415 -0.0515 -0.0042 -0.0902
    1W        W49147  28.115  19.316   0.160 -0.0819 -0.0466  0.0032
    1W        W49148   4.444  17.050   8.855 -0.2673 -0.4209 -0.1237
    1W        W49149   4.531   3.378   8.812  0.3036 -0.1790 -0.1585
    1W        W49150   2.285   9.249   8.234  0.1729  0.1991  0.3277
    1W        W49151   5.390   7.777   6.993  0.2232  0.4164  0.1807
    1W        W49152  14.353  14.853   7.241  0.0976 -0.2586 -0.0904
    1W        W49153   4.392  16.306   2.019  0.0446  0.3137 -0.2656
    1W        W49154   6.546   0.324   3.333  0.1814  0.1473  0.0198
    1W        W49155   4.303   5.346   2.833 -0.0604 -0.0824 -0.0409
    1W        W49156  13.671  28.907   0.084 -0.1734  0.0703  0.0309
    1W        W49157  28.774   9.598   7.152 -0.2542  0.2889 -0.1118
    1W        W49158   3.250  19.010   6.506  0.3084  0.0807 -0.0411
    1W        W49159  17.087  28.318   1.788 -0.3220 -0.0263  0.3139
    1W        W49160   1.669  29.213   3.540  0.1143  0.0898  0.0287
    1W        W49161   7.086   5.157   0.216 -0.2082 -0.2173 -0.0831
    1W        W49162  28.707  22.336   0.461  0.0560 -0.3256 -0.0312
    1W        W49163   4.061   4.380   7.429 -0.0921  0.2656 -0.0550
    1W        W49164  25.705  11.011   8.705  0.0079 -0.0394  0.0180
    1W        W49165  16.026  22.289   1.299 -0.0157 -0.0791  0.0229
    1W        W49166  26.554   3.429   8.155 -0.1050  0.0248  0.2715
    1W        W49167   6.403   7.371   0.073 -0.2015 -0.0886  0.2426
    1W        W49168  25.896  13.033   1.829 -0.0021  0.0957  0.1606
    1W        W49169  26.281  17.653   5.803 -0.1564 -0.0106 -0.0676
    1W        W49170   9.163   9.522   2.790 -0.1244 -0.0167 -0.0907
    1W        W49171  10.568   2.340   2.508 -0.0917  0.3624 -0.3096
    1W        W49172  29.109  12.820   1.765  0.3594  0.1811  0.1352
    1W        W49173   5.419   4.113   7.691  0.2027 -0.0022 -0.1301
    1W        W49174   8.273  27.560   1.717 -0.1784  0.0595 -0.1557
    1W        W49175  25.428  12.271   9.142 -0.2618 -0.2011  0.0273
    1W        W49176  12.549  28.151   8.632 -0.2218  0.2929  0.1439
    1W        W49177  17.785   3.673   6.719 -0.0022  0.1130 -0.0575
    1W        W49178  10.964   2.616   2.637  0.0018 -0.3872  0.0518
    1W        W49179  13.169  22.096   8.200  0.2023  0.0507  0.0432
    1W        W49180  21.636  10.833   8.429  0.0927  0.0008  0.0283
    1W        W49181   4.131  22.532   2.126  0.2321  0.0328 -0.0830
    1W        W49182  27.950   2.396   0.689  0.1602 -0.2295 -0.3836
    1W        W49183  12.432   8.172   0.295 -0.2868  0.1106  0.1299
    1W        W49184  14.326  21.813   0.669  0.1521 -0.2122  0.1096
    1W        W49185   9.016  21.418   8.926 -0.3079  0.3094  0.2329
    1W        W49186  10.086  14.620   7.366  0.2131  0.3111  0.0585
    1W        W49187  26.027   1.146   3.416 -0.0829 -0.1685  0.0453
    1W        W49188  12.258  28.113   9.018 -0.1498 -0.3882 -0.0917
    1W        W49189  11.632   2.921   8.080 -0.3383 -0.1363  0.1898
    1W        W49190  12.206  15.872   1.892 -0.0408  0.0286  0.2001
    1W        W49191  24.847  21.192   0.001 -0.1528  0.0181 -0.2299
    1W        W49192   7.641  21.795   1.137  0.2396 -0.0199  0.2009
    1W        W49193  17.374  24.392   0.993 -0.1513 -0.3134 -0.2808
    1W        W49194   7.495  23.041   6.567  0.0624  0.0654  0.0248
    1W        W49195  20.354  24.251   5.793  0.0843 -0.1060 -0.0527
    1W        W49196  10.442  14.002   1.026  0.2253  0.0504  0.0581
    1W        W49197  29.014  25.154   1.665 -0.2724 -0.2169  0.0848
    1W        W49198  27.616   4.437   2.261 -0.1489  0.1314 -0.2829
    1W        W49199  21.048  26.763   8.866  0.1981 -0.0408 -0.1242
    1W        W49200  23.972   8.871   7.059 -0.1278 -0.0555 -0.0959
    1W        W49201  21.422   8.475   0.201  0.0821  0.1538  0.0290
    1W        W49202  15.521  21.810   7.453 -0.4269 -0.1181 -0.0751
    1W        W49203   1.311  10.966   7.302  0.0192  0.0667  0.1790
    1W        W49204   8.535  28.091   0.170 -0.0926  0.1303 -0.3638
    1W        W49205  18.942  18.216   0.536  0.1559 -0.0773 -0.0369
    1W        W49206  19.729   0.036   2.268 -0.0855  0.0634  0.0393
    1W        W49207   9.801   1.846   2.432  0.0337  0.2756 -0.0776
    1W        W49208   6.545  12.963   0.594 -0.0179 -0.2936  0.1514
    1W        W49209   2.876  30.164   8.095 -0.0665  0.1973  0.1020
    1W        W49210   5.036  28.841   2.196  0.0669 -0.0641 -0.0820
    1W        W49211  13.075  18.522   0.914 -0.1503  0.3348  0.0866
    1W        W49212   1.568   2.673   2.188 -0.1358 -0.3249  0.0671
    1W        W49213  29.854   6.818   9.067  0.2220 -0.0665 -0.1360
    1W        W49214   8.494  17.512   1.788  0.4256 -0.1652  0.1259
    1W        W49215   3.594   1.515   1.525  0.1054 -0.2036  0.0796
    1W        W49216  17.246  10.861   7.191 -0.0457 -0.1663 -0.1538
    1W        W49217   3.027  26.429   1.374  0.5054 -0.2923 -0.1004
    1W        W49218  29.519  10.980   1.665 -0.0249 -0.2000 -0.5861
    1W        W49219  11.144   3.597   7.152 -0.1656  0.3561 -0.0398
    1W        W49220  24.993  23.074   1.472 -0.0312  0.0423  0.1639
    1W        W49221   7.222   9.806   0.527  0.1058 -0.0962  0.0524
    1W        W49222   0.632  28.582   2.882 -0.1871  0.1130  0.2062
    1W        W49223  25.191  23.718   1.930 -0.2566 -0.1209  0.2504
    1W        W49224  18.207   0.590   7.287 -0.1259 -0.0929 -0.0469
    1W        W49225   7.044   0.828   2.262  0.1070 -0.1199  0.3118
    1W        W49226  17.559  22.451   7.376 -0.0874 -0.1853 -0.0452
    1W        W49227  20.286   7.632   1.264  0.1737  0.0849 -0.0159
    1W        W49228   2.192  12.009   6.774  0.0028 -0.1100  0.2416
    1W        W49229   7.400  22.970   1.315  0.2682 -0.1429  0.0278
    1W        W49230  20.975  12.535   7.632 -0.0214 -0.0340 -0.1512
    1W        W49231   7.532  26.087   8.163 -0.0881  0.0606 -0.1071
    1W        W49232  28.348  25.659   0.663 -0.1338  0.1456 -0.1080
    1W        W49233  12.940  11.416   6.768  0.1915  0.4252 -0.4153
    1W        W49234  23.887  12.900   1.088  0.0464 -0.0340 -0.0303
    1W        W49235  28.755   1.050   7.959  0.0823 -0.0878  0.0637
    1W        W49236   2.867   2.118   2.199  0.4050 -0.1610  0.3984
    1W        W49237  16.367  28.229   0.449  0.1499 -0.1001  0.0173
    1W        W49238  30.187   6.385   0.650  0.2183 -0.3031 -0.0310
    1W        W49239  19.409   1.982   1.540 -0.3989 -0.0349  0.0148
    1W        W49240  16.611  26.777   2.135 -0.4336 -0.1504 -0.0003
    1W        W49241   8.939  29.484   8.200 -0.0359 -0.1160  0.0360
    1W        W49242   1.282  19.303   1.433  0.1140  0.0125 -0.0236
    1W        W49243  16.870  28.200   9.107  0.1539 -0.0564  0.0211
    1W        W49244  23.477   3.632   2.562 -0.1535 -0.0033  0.1553
    1W        W49245  19.345  29.112   6.999 -0.1011  0.1593 -0.0224
    1W        W49246   8.205  24.221   6.790 -0.2958  0.0698 -0.1970
    1W        W49247  15.387  18.058   1.324 -0.0917 -0.2063 -0.1929
    1W        W49248  11.638   9.553   0.989 -0.2611 -0.3192  0.1771
    1W        W49249   3.321  20.807   7.412  0.1175  0.1546  0.0321
    1W        W49250  15.345  12.293   2.072  0.0467  0.0184 -0.4001
    1W        W49251   2.910   9.106   8.825 -0.0187  0.2375  0.0902
    1W        W49252  14.207  27.325   0.352  0.0224 -0.0327 -0.0224
    1W        W49253   9.132  11.062   7.300  0.1695 -0.0684 -0.3097
    1W        W49254  26.335  14.271   0.558  0.0470  0.0679  0.3640
    1W        W49255  23.354   2.794   8.548  0.0199  0.1431  0.2033
    1W        W49256   1.745  30.099   8.557 -0.0318 -0.1348 -0.1072
    1W        W49257  17.468   0.947   8.692 -0.0028  0.1232 -0.2951
    1W        W49258  25.469   8.800   0.621 -0.1822 -0.0299  0.1542
    1W        W49259  12.772  24.082   7.643 -0.1255 -0.0256  0.2241
    1W        W49260  16.843  17.324   7.031  0.1718  0.0418  0.3670
    1W        W49261  27.110  24.451   0.210 -0.0543 -0.4830  0.3567
    1W        W49262   1.569   6.806   6.632 -0.0036  0.1074 -0.1348
    1W        W49263   5.762   9.247   1.533  0.0869 -0.2894 -0.1955
    1W        W49264   7.743   0.368   1.978  0.6937  0.0120  0.1048
    1W        W49265  10.027   1.014   2.320 -0.1363  0.0202  0.0047
    1W        W49266  13.002  25.686   1.896  0.0038  0.1722 -0.1703
    1W        W49267   3.740  12.056   8.045  0.1720 -0.0058 -0.1925
    1W        W49268   8.556  11.001   0.388  0.3489  0.2816 -0.1799
    1W        W49269   7.066  19.290   7.621  0.0390  0.0279  0.2439
    1W        W49270  15.082   1.523   1.346 -0.1242  0.3946 -0.2358
    1W        W49271   6.062  28.161   8.185  0.0655 -0.0698  0.3665
    1W        W49272  27.278  24.356   7.993  0.2031 -0.1376 -0.0093
    1W        W49273  13.568   4.754   7.219  0.1813 -0.0691 -0.1113
    1W        W49274  22.395  15.182   2.455  0.1883 -0.1730 -0.0323
    1W        W49275  19.413  24.227   0.038 -0.1836 -0.1423  0.0718
    1W        W49276   9.007  28.381   2.219  0.1861 -0.1589 -0.0631
    1W        W49277   5.551  19.781   0.800  0.3892  0.1857  0.0508
    1W        W49278  13.364  11.955   2.067 -0.1772 -0.0348 -0.1521
    1W        W49279   7.425  19.322   0.682 -0.0285  0.2144  0.0849
    1W        W49280  17.168   5.516   1.053  0.3788 -0.3342  0.1438
    1W        W49281  22.399  27.286   1.780 -0.5855  0.2144 -0.1226
    1W        W49282  30.050   9.122   0.538 -0.4175  0.1126 -0.0098
    1W        W49283   0.223  16.771   7.178  0.1042 -0.1879  0.0235
    1W        W49284  11.533  13.923   2.009 -0.1693 -0.2532  0.0554
    1W        W49285  12.194  22.408   8.262 -0.2391  0.1294  0.0589
    1W        W49286   4.517   6.169   0.243  0.3605 -0.0259  0.1282
    1W        W49287  10.996   5.733   6.407  0.1165  0.1015 -0.1768
    1W        W49288  28.631  30.021   0.646 -0.0623 -0.1096  0.1648
    1W        W49289  24.035   4.254   1.649  0.0108 -0.2070 -0.2652
    1W        W49290  10.793   7.983   6.695 -0.1011 -0.3184  0.1497
    1W        W49291   7.604  19.346   6.866 -0.2180 -0.3567  0.0573
    1W        W49292   1.953   1.616   2.293  0.1293  0.1237 -0.0093
    1W        W49293  19.866   1.356   9.151 -0.0019  0.0604 -0.3752
    1W        W49294  16.239  14.622   8.276 -0.1750 -0.0105  0.1914
    1W        W49295   1.387  16.616   9.093 -0.4047  0.1580  0.0684
    1W        W49296  18.139  19.896   7.998  0.2139 -0.0947 -0.1531
    1W        W49297   2.665  12.815   9.099  0.1361 -0.0043 -0.1791
    1W        W49298  18.016   4.453   2.500 -0.1805  0.1823  0.1093
    1W        W49299   0.040  22.783   8.618  0.0676  0.1421  0.0212
    1W        W49300  22.179  20.508   1.244 -0.4857  0.0374  0.0676
    1W        W49301   9.576  25.001   2.245 -0.0776 -0.4881 -0.0320
    1W        W49302  15.877  23.708   2.631 -0.1113  0.0894  0.0347
    1W        W49303  24.308  21.881   7.985  0.2700 -0.2509 -0.0353
    1W        W49304  24.514  20.782   7.174 -0.0401 -0.0740  0.5676
    1W        W49305   8.394  17.894   1.468 -0.3556 -0.1315  0.0631
    1W        W49306  13.517   2.960   0.875 -0.0540 -0.0328  0.2327
    1W        W49307  20.091   4.042   1.236 -0.1158  0.3083 -0.2242
    1W        W49308  29.564  23.028   8.070 -0.1691  0.2308 -0.1202
    1W        W49309  28.116  12.794   1.425  0.1437  0.2598  0.2214
    1W        W49310  17.266  22.111   8.143  0.1672 -0.1935 -0.0601
    1W        W49311  27.061   6.043   0.371  0.2556 -0.1610 -0.1072
    1W        W49312  28.733   3.734   0.246  0.1743  0.1451  0.1619
    1W        W49313  19.997  30.186   1.846  0.1178 -0.0779 -0.1086
    1W        W49314  13.147   4.542   6.511  0.2557  0.0315 -0.4911
    1W        W49315  28.963   2.380   1.250 -0.2814 -0.0152 -0.0396
    1W        W49316  12.791  29.217   0.667 -0.0972  0.2064  0.2570
    1W        W49317   2.730  25.866   0.635  0.1001 -0.0510  0.0316
    1W        W49318  12.211  19.173   8.784 -0.1154 -0.1166 -0.1926
    1W        W49319   5.573  20.221   9.193 -0.0364 -0.3299 -0.2285
    1W        W49320  14.847   5.194   2.073 -0.1929 -0.1146 -0.1821
    1W        W49321  17.391   3.093   6.154 -0.1228 -0.0418  0.0587
    1W        W49322  22.051  29.377   1.214 -0.0295 -0.3949  0.0910
    1W        W49323  21.415   2.871   0.727  0.1732  0.4276  0.0219
    1W        W49324  17.305  10.961   0.339 -0.0427 -0.0733 -0.2003
    1W        W49325  27.406  27.812   7.555 -0.1340  0.0149 -0.1040
    1W        W49326  17.289   2.599   8.967 -0.0491  0.1204 -0.0958
    1W        W49327   4.242  20.430   8.308 -0.1709 -0.0946 -0.2093
    1W        W49328  24.191  10.122   1.002  0.0990  0.0145 -0.2557
    1W        W49329   6.381  10.823   7.036 -0.0738 -0.2334  0.1939
    1W        W49330   5.994   9.443   0.181  0.1539  0.2219 -0.0817
    1W        W49331   6.191  17.971   6.781 -0.1277  0.0260 -0.3272
    1W        W49332   5.484  12.577   6.403 -0.1451 -0.3261 -0.4774
    1W        W49333   7.322   1.441   3.568  0.0095  0.2382  0.1029
    1W        W49334  13.083  29.906   2.175  0.0352  0.2368 -0.2887
    1W        W49335  27.269  27.399   7.294  0.0277  0.2762  0.3701
    1W        W49336  16.842   9.552   1.335  0.1492 -0.1914 -0.0571
    1W        W49337  27.734  26.590   2.445  0.0257  0.4894  0.3086
    1W        W49338   3.755   3.226   3.031 -0.0456 -0.1639 -0.1255
    1W        W49339   8.916  26.155   8.127  0.0142  0.2532  0.2552
    1W        W49340   6.324  22.846   8.287  0.0899  0.1429 -0.1960
    1W        W49341   4.968   7.261   2.087 -0.1281  0.0546  0.1014
    1W        W49342  12.919  10.416   9.055  0.1230  0.1386  0.0643
    1W        W49343  25.190  15.110   6.863  0.3830  0.0819 -0.0432
    1W        W49344   1.309  20.112   1.068 -0.2603  0.1423  0.4171
    1W        W49345  21.831   9.686   2.101  0.0047  0.0823 -0.1030
    1W        W49346  26.279  27.898   8.386 -0.1134 -0.2821  0.3584
    1W        W49347  24.096  28.527   7.256 -0.0343  0.2041 -0.0923
    1W        W49348  12.416   0.151   2.916 -0.0578  0.0330 -0.0625
    1W        W49349  11.262  14.238   1.143 -0.3206 -0.0733 -0.1132
    1W        W49350  12.980   5.430   0.139  0.2660 -0.1503 -0.2368
    1W        W49351  18.011  23.861   0.647  0.0920 -0.3274 -0.1336
    1W        W49352  17.568   0.408   2.735 -0.1227 -0.2915  0.2279
    1W        W49353  25.948   8.018   0.576 -0.2014 -0.3170 -0.1549
    1W        W49354  22.193   9.405   2.648  0.2762 -0.2081 -0.2144
    1W        W49355  17.105   1.660   8.338 -0.0287  0.0328 -0.1454
    1W        W49356  22.310  21.314   5.915 -0.2220 -0.2855 -0.2002
    1W        W49357  18.925  21.709   9.061  0.0712 -0.0436 -0.0013
    1W        W49358   1.565  11.298   8.767 -0.2322 -0.2705  0.1260
    1W        W49359   1.329   8.352   2.034 -0.3525 -0.2992 -0.0237
    1W        W49360  22.008  26.094   8.922 -0.1362 -0.0771  0.1804
    1W        W49361   6.037   3.168   8.097 -0.2233  0.2027 -0.1089
    1W        W49362  30.311   6.196   2.390 -0.1878  0.1261 -0.1469
    1W        W49363   2.913  28.374   7.205 -0.1142 -0.3331  0.0269
    1W        W49364  23.987  27.005   7.255  0.0415 -0.0965  0.0116
    1W        W49365  11.505  10.806   8.993 -0.0824  0.3999  0.0834
    1W        W49366  23.019   1.379   0.015  0.3105  0.2505  0.0600
    1W        W49367  14.482   3.512   9.239  0.1728 -0.3554  0.0493
    1W        W49368   4.940  21.183   6.980  0.2149 -0.1286  0.0730
    1W        W49369   8.624   6.346   7.655  0.0652  0.1991 -0.1042
    1W        W49370  22.126  16.490   7.849  0.1819  0.0833 -0.3342
    1W        W49371  22.851  14.655   6.856 -0.3343  0.1622 -0.2251
    1W        W49372   9.205  24.963   2.724  0.0173 -0.1214  0.5033
    1W        W49373  12.563  26.235   8.107 -0.0446 -0.0517 -0.1584
    1W        W49374  26.219  26.161   0.381  0.0152  0.1510  0.0869
    1W        W49375  27.144  27.483   8.900 -0.1957  0.1697 -0.1730
    1W        W49376  26.774  10.276   6.091  0.0947 -0.1233  0.0737
    1W        W49377  13.852  29.689   0.205 -0.0198 -0.1316 -0.2235
    1W        W49378  13.928  17.122   0.743 -0.1847 -0.0376 -0.2393
    1W        W49379  25.937   7.278   7.590  0.0776  0.0152 -0.0080
    1W        W49380  29.721  23.512   7.221 -0.2246  0.1596 -0.1462
    1W        W49381  16.294   0.868   8.698  0.4293 -0.1565 -0.1041
    1W        W49382  30.280  27.887   1.025 -0.1579 -0.3148  0.2134
    1W        W49383  23.566  17.238   9.174 -0.1939  0.0090  0.2926
    1W        W49384  29.613  26.427   1.947  0.0176  0.1448  0.0465
    1W        W49385  27.276  25.183   0.554 -0.1850  0.0376 -0.1249
    1W        W49386  12.727  11.969   0.057  0.1528  0.0130 -0.2065
    1W        W49387  13.959   0.068   8.294 -0.0322 -0.3211 -0.1079
    1W        W49388  13.705  21.204   0.551  0.1886  0.4259  0.0145
    1W        W49389  21.295   5.075   6.853 -0.2400 -0.0582  0.2795
    1W        W49390  17.337   0.614   9.071  0.0578  0.0578  0.2229
    1W        W49391  20.431   5.928   7.061 -0.2149  0.1607  0.1760
    1W        W49392  15.360  16.753   7.966  0.2161 -0.2252  0.3470
    1W        W49393  12.927  23.026   1.701 -0.0234  0.0377 -0.0747
    1W        W49394  20.746   8.258   7.117  0.2239  0.1516 -0.1752
    1W        W49395  16.613   3.396   2.460 -0.1190 -0.1606 -0.0204
    1W        W49396  14.922   2.149   0.144 -0.0333 -0.1232 -0.0109
    1W        W49397  10.529  29.205   2.458  0.0284  0.0438  0.1035
    1W        W49398   8.172  15.340   7.802  0.0047 -0.2626 -0.2446
    1W        W49399  21.691   3.874   9.157  0.1436 -0.0168 -0.0721
    1W        W49400  29.128   9.210   7.193 -0.1567  0.0308 -0.2859
    1W        W49401  16.050   8.714   1.640  0.1392 -0.3645 -0.0599
    1W        W49402  12.637  24.493   8.609  0.0657  0.0141  0.4727
    1W        W49403  12.309  29.212   0.558  0.0420 -0.0779  0.1441
    1W        W49404  23.330   9.020   5.933 -0.2509  0.1385  0.0355
    1W        W49405  20.640  22.315   6.515  0.0071 -0.1162 -0.2288
    1W        W49406  14.998  27.858   8.479  0.0259  0.1653  0.0039
    1W        W49407  17.395   1.732   0.968  0.1137 -0.0414  0.1174
    1W        W49408  24.163   6.375   6.245 -0.0821  0.0179  0.0454
    1W        W49409  20.678   0.733   8.198 -0.1448  0.0343  0.1201
    1W        W49410  13.408   1.511   9.121  0.3596  0.0038 -0.0368
    1W        W49411  23.103  18.223   6.117 -0.1129 -0.2084  0.1592
    1W        W49412  20.309   1.035   7.304  0.2588  0.0724  0.2112
    1W        W49413  28.415  19.118   7.055  0.2544 -0.0548  0.2406
    1W        W49414  13.022  27.197   7.482  0.2806 -0.0500  0.1670
    1W        W49415  26.472  14.285   8.590  0.0434 -0.2369  0.2154
    1W        W49416   6.413  24.992   1.877 -0.2404  0.2377  0.2077
    1W        W49417   8.623  21.551   6.317 -0.0143  0.1019  0.2309
    1W        W49418   0.652  11.611   7.954 -0.1622 -0.1470 -0.0886
    1W        W49419  10.915   0.888   2.407  0.2191 -0.0409  0.4988
    1W        W49420  15.605  17.731   7.748  0.1279  0.1551 -0.0863
    1W        W49421   2.453  28.481   0.627  0.1105  0.2229 -0.4277
    1W        W49422  25.792  22.583   0.287  0.0696 -0.0266  0.2663
    1W        W49423  23.923  13.055   8.854 -0.0315 -0.0918 -0.0223
    1W        W49424  27.355   6.952   8.062 -0.2346  0.1036 -0.1271
    1W        W49425  14.227  18.325   7.219 -0.2885  0.0624  0.1410
    1W        W49426  14.730  19.954   8.680 -0.1857  0.1621  0.0374
    1W        W49427  10.685   1.869   1.428  0.1745 -0.0129  0.2073
    1W        W49428  12.517  27.557   1.165  0.0445 -0.2971 -0.0953
    1W        W49429  26.223  28.778   0.337  0.3142  0.1143  0.4307
    1W        W49430   1.985  29.207   7.168 -0.2772 -0.3391  0.2290
    1W        W49431   0.562   0.381   8.570  0.0372  0.0824  0.0803
    1W        W49432  12.152   0.230   7.319 -0.0429  0.2344  0.0770
    1W        W49433   2.930   8.063   8.267 -0.1760  0.1222  0.0245
    1W        W49434   7.365  27.686   8.478 -0.2449 -0.0887  0.2004
    1W        W49435  19.669  13.687   8.770 -0.0794  0.0484 -0.2559
    1W        W49436   4.034   5.529   0.115 -0.1645 -0.1002  0.1330
    1W        W49437  18.336   0.229   6.051  0.3903 -0.0976 -0.1216
    1W        W49438  24.681   3.222   1.794  0.0112  0.1112  0.3662
    1W        W49439  22.560  15.424   0.475 -0.2702 -0.1260 -0.1437
    1W        W49440  26.611  25.086   8.128  0.0144 -0.2994 -0.0802
    1W        W49441   8.129  19.506   1.830  0.0799 -0.1856  0.0439
    1W        W49442  28.316   4.682   1.331 -0.1786  0.2460 -0.1724
    1W        W49443  22.403  15.266   0.988 -0.0668  0.2214  0.2249
    1W        W49444   8.384   2.996   1.112  0.0042  0.1146 -0.1836
    1W        W49445   5.129  21.916   7.669  0.0050  0.0137 -0.0734
    1W        W49446  17.061  16.331   0.819  0.2860  0.0417  0.2794
    1W        W49447   9.970  28.853   7.167 -0.0495  0.0442  0.0391
    1W        W49448  17.071   9.253   2.289  0.2110  0.2709 -0.1593
    1W        W49449  10.966   7.451   1.600 -0.2338 -0.1316  0.0950
    1W        W49450  28.286  21.881   8.481 -0.0149 -0.0345  0.1577
    1W        W49451  27.304  18.348   6.845 -0.1845  0.1688  0.0765
    1W        W49452   3.069   6.192   1.930  0.1409  0.0148 -0.1444
    1W        W49453  10.626  13.883   7.117  0.2168  0.1336  0.2456
    1W        W49454  29.199  18.291   8.443  0.0149  0.1764  0.0865
    1W        W49455   6.575  27.433   7.548  0.0783 -0.0432 -0.0519
    1W        W49456  27.230  13.877   0.220 -0.0748  0.3139  0.0193
    1W        W49457  26.287  21.599   2.490  0.1418 -0.0309  0.0688
    1W        W49458   4.480  28.009   7.306  0.1416 -0.1012 -0.0510
    1W        W49459  13.146  19.130   6.598 -0.3336 -0.3910 -0.1507
    1W        W49460  16.724  14.916   3.277 -0.0718 -0.1480  0.3307
    1W        W49461   1.925   1.932   0.920  0.1618  0.0827  0.0203
    1W        W49462  17.949   8.445   8.639  0.1413 -0.1426 -0.0174
    1W        W49463  11.288  12.965   7.685 -0.1319 -0.1817 -0.2088
    1W        W49464   3.337  27.573   8.121 -0.1071  0.0576 -0.2907
    1W        W49465  19.436  17.986   7.938 -0.1041  0.1820 -0.2576
    1W        W49466  24.617  19.941   2.033  0.1194 -0.1406 -0.3479
    1W        W49467  19.081   9.802   1.554  0.0641 -0.2230  0.3018
    1W        W49468  25.641   5.366   8.450 -0.3881  0.1282  0.2862
    1W        W49469   4.736  20.151   6.425 -0.3219 -0.2655  0.1336
    1W        W49470  22.388  11.094   6.807  0.0657 -0.1357 -0.1633
    1W        W49471   5.712  21.153   1.643 -0.2565  0.0555  0.0215
    1W        W49472  24.187  23.067   8.778 -0.3600 -0.1784  0.1680
    1W        W49473   0.212  15.439   1.935  0.1263  0.1214  0.2241
    1W        W49474  27.126   0.368   7.173  0.1870  0.0409 -0.3351
    1W        W49475  17.489  11.823   7.069  0.3002  0.0488 -0.0153
    1W        W49476  12.133  15.628   0.022  0.2336  0.1958  0.0326
    1W        W49477   2.637  20.737   0.834  0.1691 -0.0628  0.1697
    1W        W49478  16.073  28.261   8.556  0.4090 -0.0214  0.0200
    1W        W49479   8.254  24.764   0.236  0.0247 -0.1636  0.0733
    1W        W49480  23.243  10.890   6.755  0.2038  0.1792  0.1845
    1W        W49481  29.971   2.116   2.531 -0.2311 -0.0686  0.0233
    1W        W49482  12.066  26.517   1.118  0.0265 -0.1074 -0.5757
    1W        W49483   4.846  23.027   9.243  0.2211 -0.0072  0.1108
    1W        W49484  14.762   9.309   8.547  0.1525  0.1696 -0.3171
    1W        W49485  11.711  26.473   6.921 -0.0361 -0.1496 -0.0111
    1W        W49486  28.103   4.131   3.113 -0.2911 -0.0270 -0.3222
    1W        W49487  16.514   0.347   7.919 -0.1711 -0.2636 -0.0883
    1W        W49488  29.741  23.806   1.377  0.4752 -0.4030  0.0383
    1W        W49489  27.364  10.050   1.626 -0.1943 -0.0682  0.0270
    1W        W49490   4.594  19.960   0.269 -0.0594 -0.2648 -0.0224
    1W        W49491  28.888   0.711   1.908 -0.1344 -0.3561  0.0147
    1W        W49492  10.311   2.981   0.531  0.0181  0.0158  0.0256
    1W        W49493   2.504   0.459   7.573  0.3238  0.1830  0.0055
    1W        W49494  13.698  16.034   8.602 -0.0394  0.0898 -0.0683
    1W        W49495  25.069  18.563   1.423 -0.0068  0.2305 -0.2344
    1W        W49496   8.004  20.105   0.964  0.2732 -0.0444 -0.3673
    1W        W49497  20.193  11.188   1.395 -0.0377  0.1230 -0.1209
    1W        W49498   5.374  19.025   8.355 -0.2277 -0.1246 -0.1153
    1W        W49499  11.816  15.791   8.462 -0.1578  0.1835 -0.0301
    1W        W49500   3.051  24.232   8.886 -0.3504  0.0557  0.0768
    1W        W49501  22.083   7.948   0.965 -0.1999  0.3406 -0.4155
    1W        W49502  15.816  25.158   8.030  0.0181 -0.0472 -0.1182
    1W        W49503  15.411  23.832   7.124 -0.0945  0.1813 -0.3735
    1W        W49504  12.217  30.218   0.829  0.0008 -0.3487  0.0693
    1W        W49505  18.476   5.741   8.511 -0.1350 -0.1092  0.2250
    1W        W49506   9.063  12.821   7.529 -0.2193  0.2323  0.1865
    1W        W49507  17.441  25.185   0.466  0.0436 -0.1352 -0.0350
    1W        W49508   3.558  11.677   1.408  0.2524 -0.0965 -0.0273
    1W        W49509  20.264  17.089   7.733  0.1453 -0.0265 -0.0730
    1W        W49510  28.954  13.006   8.970  0.0572  0.0619  0.2925
    1W        W49511   8.119   0.065   1.089  0.2935 -0.4059 -0.1621
    1W        W49512  27.378  18.707   9.017  0.0712 -0.1622  0.2206
    1W        W49513  18.086  11.337   7.392  0.0372 -0.0481 -0.5227
    1W        W49514  18.648   0.273   1.419  0.0562 -0.1611 -0.2623
    1W        W49515   0.022  20.511   1.299  0.0381  0.0737  0.0679
    1W        W49516  11.155  20.900   1.254 -0.1270 -0.1000 -0.1829
    1W        W49517  22.583   2.744   2.657 -0.0710 -0.0496  0.0398
    1W        W49518  21.745  13.740   8.335 -0.2474 -0.2256  0.0079
    1W        W49519  28.863  25.119   8.071  0.0038  0.1899  0.0632
    1W        W49520  13.149  25.869   6.467  0.2094 -0.0582  0.1659
    1W        W49521   9.519  27.617   0.307 -0.0200  0.2261  0.1354
    1W        W49522   6.795   0.403   7.055 -0.0221  0.1143 -0.0871
    1W        W49523  11.432  21.445   7.345 -0.0688 -0.2522 -0.1765
    1W        W49524  14.287  13.422   8.978  0.0975 -0.0948  0.3356
    1W        W49525  20.824  18.814   6.438 -0.2557 -0.0753  0.4580
    1W        W49526  22.607  17.427   0.298 -0.0097 -0.0590 -0.1557
    1W        W49527  11.383   2.892   2.342  0.1238 -0.0052 -0.0807
    1W        W49528   1.080  19.085   7.683  0.2965 -0.0116  0.0972
    1W        W49529   9.885  19.371   2.768  0.2278 -0.0557 -0.1141
    1W        W49530  24.388   0.637   6.809  0.2242  0.0801  0.3055
    1W        W49531  29.440  28.240   1.621  0.1516 -0.1705 -0.3471
    1W        W49532  20.944  14.621   8.065 -0.0669 -0.4274 -0.0838
    1W        W49533  19.062  22.878   1.260 -0.3352 -0.1968  0.1966
    1W        W49534   8.901  21.422   1.013  0.2808  0.0360 -0.1145
    1W        W49535  22.500  11.308   6.352 -0.1526 -0.2514 -0.1147
    1W        W49536   6.250   6.051   0.274  0.2930  0.1298  0.0299
    1W        W49537   5.535  25.163   7.054 -0.0912  0.1212 -0.2122
    1W        W49538  19.796  23.519   1.685 -0.0723  0.0186  0.1394
    1W        W49539  13.745  29.747   8.955  0.0684 -0.2769  0.1300
    1W        W49540   8.261  19.717   7.116  0.1570  0.1538  0.2583
    1W        W49541   7.378  29.259   9.243 -0.3175 -0.1813 -0.4227
    1W        W49542  15.271   7.433   6.241  0.0197 -0.0522 -0.0042
    1W        W49543   1.316   6.951   8.806 -0.3672 -0.1998  0.0869
    1W        W49544   2.501   4.890   8.972 -0.0470  0.1120  0.2297
    1W        W49545   8.668  25.040   0.130  0.3651  0.1031 -0.2419
    1W        W49546   4.705   0.475   2.031 -0.4506 -0.1173 -0.1601
    1W        W49547  21.390   1.732   2.489 -0.1915 -0.0292  0.0678
    1W        W49548  10.831  24.526   2.787  0.0221  0.1079 -0.0532
    1W        W49549  24.523  19.962   7.303  0.1768 -0.0537 -0.2474
    1W        W49550  30.329  16.521   1.752  0.0496 -0.1308  0.2924
    1W        W49551  25.204   1.556   2.039  0.2739  0.0533  0.0961
    1W        W49552   4.889  29.446   1.314 -0.1845 -0.1488  0.2713
    1W        W49553  28.380  24.243   7.838 -0.1414 -0.0079  0.1869
    1W        W49554   0.306   7.476   6.814  0.5744 -0.0145 -0.3614
    1W        W49555   2.716  14.742   6.242 -0.0699 -0.1798 -0.1972
    1W        W49556  14.393  22.190   2.058  0.1059 -0.1407 -0.1349
    1W        W49557  14.338   8.951   6.280  0.0697 -0.3431 -0.1819
    1W        W49558  17.438  26.441   7.129 -0.4516  0.1864  0.0869
    1W        W49559  15.747  12.846   1.328 -0.2523  0.1030 -0.1583
    1W        W49560   8.737  19.359   2.584 -0.1977 -0.0492 -0.2537
    1W        W49561  28.753  10.922   0.391  0.2443 -0.0964 -0.0842
    1W        W49562   6.589   2.909   2.562  0.1633 -0.0938 -0.1557
    1W        W49563  15.437  21.578   7.894  0.0139  0.0604 -0.0602
    1W        W49564  10.018   0.442   2.514  0.1045 -0.0850  0.1015
    1W        W49565  26.114   0.259   8.197 -0.2484 -0.1138  0.0727
    1W        W49566   5.779  15.850   8.638 -0.1052 -0.1348  0.2790
    1W        W49567  10.042  25.404   0.442 -0.0571  0.2510  0.3803
    1W        W49568  28.456   4.736   2.554 -0.1898  0.1626  0.1212
    1W        W49569  12.749  21.063   7.088 -0.5846  0.1981  0.1750
    1W        W49570  28.915   5.913   7.679 -0.0391 -0.2338  0.0203
    1W        W49571  14.388   6.850   6.789 -0.0189  0.1159  0.0157
    1W        W49572  24.108   6.969   7.246 -0.1111  0.3419  0.1324
    1W        W49573   9.114  21.518   1.529 -0.1386  0.0584  0.3790
    1W        W49574   7.077   0.433   2.560  0.2439 -0.3744 -0.0826
    1W        W49575   4.795  28.571   8.691 -0.1277  0.0291 -0.0186
    1W        W49576   0.655   1.777   1.498 -0.1819 -0.1374  0.2629
    1W        W49577  20.569  23.113   6.619  0.2572  0.1436 -0.2522
    1W        W49578  16.675   1.633   7.147  0.2013 -0.4861 -0.3791
    1W        W49579  18.068  14.680   0.096 -0.1688  0.0097  0.1187
    1W        W49580  23.347   5.039   7.857  0.2309  0.1321  0.0747
    1W        W49581  25.740   5.394   7.972 -0.0466 -0.0779 -0.2019
    1W        W49582  24.420  23.838   8.992 -0.1794 -0.3862  0.0003
    1W        W49583  26.792  18.680   0.107  0.1279  0.0377  0.3470
    1W        W49584  26.197   1.736   4.095 -0.0833 -0.2145 -0.1823
    1W        W49585  22.192  18.066   8.567  0.0433  0.0555  0.0072
    1W        W49586   3.398  16.234   8.468 -0.0297 -0.2699 -0.2511
    1W        W49587  19.229  22.324   1.895 -0.1285 -0.0194  0.1445
    1W        W49588  10.763  30.192   8.283  0.3112  0.0142 -0.0111
    1W        W49589   7.239  13.256   0.239  0.1949 -0.1692  0.3009
    1W        W49590  26.133  24.712   7.887  0.0229  0.2415 -0.3221
    1W        W49591  25.267  20.512   6.239 -0.0172 -0.0076 -0.0869
    1W        W49592  27.685  14.437   8.207  0.2325 -0.5583 -0.1190
    1W        W49593   0.459  27.097   0.368  0.6015 -0.2156  0.0582
    1W        W49594   7.535  17.616   8.796 -0.1703 -0.0245 -0.1243
    1W        W49595  19.645  16.596   8.492  0.1209 -0.1448 -0.2338
    1W        W49596   3.296  14.537   1.475 -0.2486 -0.0584  0.0413
    1W        W49597   2.854  27.597   2.072 -0.2082  0.0173  0.1417
    1W        W49598   6.923   2.639   0.482  0.1723  0.0125 -0.0356
    1W        W49599  14.778  13.077   3.446  0.3206  0.0965 -0.2894
    1W        W49600   4.144   8.216   6.970 -0.0272  0.1422  0.1081
    1W        W49601  29.109  26.827   0.993  0.1878 -0.0744 -0.2920
    1W        W49602   7.902  25.069   1.019  0.1841 -0.0576  0.2577
    1W        W49603  28.506  25.027   7.603  0.1743 -0.4136 -0.0967
    1W        W49604  24.759  26.973   2.828 -0.0297  0.0373  0.3477
    1W        W49605   5.756   1.748   1.319  0.3678  0.4399  0.0692
    1W        W49606  12.192   0.998   5.644 -0.1925  0.0932 -0.1070
    1W        W49607   4.242  10.979   8.396 -0.1054 -0.0395 -0.0899
    1W        W49608   3.532  29.405   2.444  0.2584  0.2648  0.2461
    1W        W49609   3.170   8.777   2.484  0.0687  0.1856 -0.1907
    1W        W49610  21.339  26.884   7.994 -0.1130  0.0917  0.0555
    1W        W49611  10.899  27.432   7.332 -0.2865 -0.0179 -0.0817
    1W        W49612  28.670  20.824   8.600  0.2384 -0.0037  0.0144
    1W        W49613   1.111  15.946   8.121  0.2401  0.2219 -0.0594
    1W        W49614  21.288  25.873   1.283  0.0158 -0.0438  0.3836
    1W        W49615  30.352  27.960   0.517 -0.2924  0.0491  0.2521
    1W        W49616  11.308  29.479   7.515 -0.5366  0.1167  0.2921
    1W        W49617  16.945   5.478   1.528 -0.0813  0.4119  0.3369
    1W        W49618  12.737  27.543   7.840 -0.0088  0.1060 -0.0157
    1W        W49619  21.643  14.509   2.737  0.1403  0.0090  0.1912
    1W        W49620   3.846   5.796   9.012 -0.2314 -0.3240  0.3273
    1W        W49621  27.836  29.390   1.968  0.0756 -0.3470 -0.0312
    1W        W49622  10.204  21.185   6.971 -0.0359 -0.0198 -0.2258
    1W        W49623   4.447  25.268   2.535 -0.2033  0.3750 -0.1565
    1W        W49624   5.914  12.426   1.674  0.1526  0.0659 -0.1015
    1W        W49625  18.897  22.503   1.487 -0.4102 -0.3469  0.5263
    1W        W49626  12.620  28.480   2.338  0.0475  0.1951  0.1830
    1W        W49627   4.002  11.602   7.868 -0.0212 -0.1114 -0.1975
    1W        W49628   8.620   1.501   7.357  0.2318  0.0174  0.0569
    1W        W49629   5.208   5.765   2.262  0.0913 -0.4793  0.2085
    1W        W49630  14.313  11.048   1.635 -0.1312 -0.1242 -0.1185
    1W        W49631   2.531   6.561   0.366  0.0922  0.3428  0.1731
    1W        W49632  10.848  12.067   8.898 -0.4126 -0.0772 -0.1286
    1W        W49633   4.662  23.473   9.035  0.1961 -0.2074 -0.2523
    1W        W49634  10.833  14.687   2.215  0.0105  0.2812  0.2359
    1W        W49635  26.017  16.893   6.959 -0.0245  0.2447 -0.1163
    1W        W49636  16.121  12.917   3.249  0.2251  0.1055 -0.2153
    1W        W49637  26.494  24.466   8.183  0.2179  0.1372  0.0097
    1W        W49638  16.892   3.819   2.672  0.1120  0.2815  0.0225
    1W        W49639   6.895   2.361   0.917  0.1068 -0.1853  0.1898
    1W        W49640   5.534  17.373   8.679  0.0081  0.1918  0.1173
    1W        W49641   5.545   0.976   2.256 -0.2279  0.2157  0.2124
    1W        W49642  11.685   6.952   0.197 -0.0586 -0.0656  0.2146
    1W        W49643  25.939  24.253   1.723  0.0651 -0.1241 -0.0288
    1W        W49644   7.788  15.526   1.784 -0.0884 -0.1356 -0.0164
    1W        W49645  24.412   7.276   6.869  0.0729  0.3796 -0.2621
    1W        W49646   5.657   7.936   9.126  0.3059  0.1771 -0.1315
    1W        W49647   2.153   0.929   7.597 -0.1506 -0.0228  0.0082
    1W        W49648  27.524   3.390   7.024 -0.0623 -0.1561 -0.1791
    1W        W49649   4.534  13.588   6.547 -0.1687  0.1946 -0.0565
    1W        W49650  18.387  23.012   0.274  0.0293  0.0127 -0.0897
    1W        W49651   0.227   7.229   7.308  0.5204 -0.1112 -0.1360
    1W        W49652   8.455  26.131   7.334  0.2379 -0.0017  0.3223
    1W        W49653   6.436  17.694   6.308  0.0717  0.1303  0.0622
    1W        W49654   5.652  17.924   7.082 -0.1229  0.1664  0.0674
    1W        W49655  15.908  16.755   2.477  0.0541 -0.1965 -0.0659
    1W        W49656  16.775  19.346   1.573 -0.1620  0.1798 -0.0874
    1W        W49657  18.908  28.224   8.867 -0.2813 -0.1806  0.1908
    1W        W49658  19.724  27.327   0.807 -0.1063  0.0131  0.0484
    1W        W49659   0.398  28.454   8.314  0.1763 -0.1411  0.5374
    1W        W49660  14.957  29.803   1.977  0.2821 -0.2392  0.1908
    1W        W49661  29.819   6.671   0.341 -0.0989 -0.1287 -0.1137
    1W        W49662   3.635  23.022   2.492  0.0031  0.0865 -0.2150
    1W        W49663  24.230  20.212   2.203 -0.0143  0.0019  0.2451
    1W        W49664  24.361   8.789   8.020  0.0942  0.1191  0.1018
    1W        W49665  22.039  23.165   2.148  0.1082  0.1911 -0.4625
    1W        W49666   9.008   9.000   3.151 -0.0509 -0.1239  0.1449
    1W        W49667  17.884  17.183   8.255  0.2890  0.0710  0.1141
    1W        W49668   8.495   6.035   2.344 -0.0552  0.0811 -0.0420
    1W        W49669   5.784  17.917   1.268 -0.1436 -0.1348  0.1173
    1W        W49670   2.688   8.598   8.017  0.2118 -0.1116 -0.0358
    1W        W49671   2.910   1.134   1.825 -0.0144 -0.2259 -0.1289
    1W        W49672   9.239   7.942   8.321  0.2206 -0.1553  0.1311
    1W        W49673  10.158  20.871   0.921  0.1500  0.3827 -0.2113
    1W        W49674  12.398   5.342   8.352  0.0464 -0.2073  0.0793
    1W        W49675   5.832  14.080   8.701 -0.0005  0.1669  0.0761
    1W        W49676  25.421  29.878   8.046 -0.4077  0.2156  0.2724
    1W        W49677   6.256  25.123   6.567  0.0620 -0.1128 -0.2592
    1W        W49678  13.237  18.284   0.059  0.1819 -0.1091  0.0623
    1W        W49679  18.073  14.333   8.957 -0.0003 -0.3263 -0.0798
    1W        W49680  16.220  29.356   0.713 -0.2202  0.0127  0.2827
    1W        W49681  23.985   7.480   7.300  0.2712  0.0678 -0.0217
    1W        W49682  25.163  20.713   6.937 -0.0991  0.4485  0.0799
    1W        W49683   9.601  23.634   2.178 -0.1373  0.0822  0.2512
    1W        W49684  14.800  10.625   2.211 -0.1194  0.1659  0.1054
    1W        W49685   5.911   5.113   0.107 -0.0796 -0.1251  0.0955
    1W        W49686   6.926   6.864   2.038  0.0496  0.1467  0.0348
    1W        W49687   5.879   9.128   2.778 -0.0576 -0.1442 -0.1346
    1W        W49688   3.176  28.095   0.573 -0.2963 -0.1082  0.1770
    1W        W49689  22.150   7.570   1.612  0.0605  0.0495 -0.2185
    1W        W49690   9.832  21.803   7.995  0.1370  0.1849 -0.0334
    1W        W49691  17.585   9.346   8.817 -0.0871  0.2051  0.3442
    1W        W49692  25.482  23.363   8.790 -0.0227  0.1927  0.2418
    1W        W49693  11.301  18.354   0.970 -0.1687 -0.1359 -0.0586
    1W        W49694  18.077  21.422   1.053  0.3047 -0.0890 -0.2458
    1W        W49695  21.538  11.005   6.467  0.2693 -0.2649 -0.1760
    1W        W49696  21.573  20.659   0.736 -0.1527  0.1893  0.1054
    1W        W49697  24.931   7.527   8.314 -0.1930 -0.2543 -0.1040
    1W        W49698  24.304   4.607   2.612 -0.3347  0.0522  0.1340
    1W        W49699  15.955  21.105   7.157  0.0803 -0.2961 -0.0981
    1W        W49700   7.747  18.556   8.182 -0.0116 -0.0537  0.1277
    1W        W49701   2.738   5.783   1.739 -0.0926  0.1732  0.0906
    1W        W49702  17.543  19.225   7.644 -0.0114 -0.0945 -0.1909
    1W        W49703  23.255   2.138   1.426 -0.1696 -0.0202  0.0103
    1W        W49704  23.065  20.833   7.768  0.0080 -0.1950 -0.0866
    1W        W49705  17.061  13.712   7.678 -0.2686  0.1598  0.2256
    1W        W49706  15.258  25.073   8.485 -0.1123  0.1280 -0.0398
    1W        W49707  29.613   5.493   9.217  0.1434 -0.1730 -0.2743
    1W        W49708   0.469  29.496   8.403  0.2027  0.1455 -0.3098
    1W        W49709  17.380  17.460   1.797 -0.3482 -0.0249  0.1512
    1W        W49710  18.756  11.676   6.231 -0.0588 -0.1114  0.1709
    1W        W49711  11.186  27.734   8.558 -0.0197  0.2265 -0.1804
    1W        W49712  23.401   1.888   8.060 -0.0417  0.2026  0.4133
    1W        W49713  13.180  28.832   1.527 -0.2006 -0.0269 -0.0743
    1W        W49714  22.524  26.695   8.163  0.0702 -0.0612  0.0973
    1W        W49715  27.026  28.913   7.863  0.1067 -0.2650 -0.0294
    1W        W49716  23.445   3.701   1.627 -0.0118  0.1267  0.3714
    1W        W49717   0.369   6.167   1.470 -0.1821 -0.0538  0.3768
    1W        W49718   3.783  26.229   0.967  0.2429 -0.1144 -0.1167
    1W        W49719   9.671  24.056   0.683  0.0644  0.2427 -0.2543
    1W        W49720   8.046   3.189   6.957  0.0364 -0.0286  0.1225
    1W        W49721   8.201   7.459   8.129 -0.2552  0.0188 -0.2392
    1W        W49722  10.248  14.288   0.535 -0.3618 -0.1442  0.4216
    1W        W49723  12.539  10.192   6.959  0.1377  0.0794  0.1233
    1W        W49724  24.058  16.070   1.769  0.2932  0.0772  0.1020
    1W        W49725  29.065  12.321   7.787 -0.1039 -0.0480  0.1893
    1W        W49726   1.459   9.934   1.117  0.1824  0.0656 -0.0407
    1W        W49727  21.317   1.917   7.423  0.0123  0.0711 -0.0403
    1W        W49728   4.075  29.382   0.919  0.2233 -0.2174  0.2517
    1W        W49729   9.849   1.855   1.488  0.2869  0.0772 -0.1534
    1W        W49730  16.199   0.532   6.598 -0.0057  0.1885 -0.0045
    1W        W49731   8.453   4.899   2.324 -0.1605 -0.1619 -0.1835
    1W        W49732  26.777   2.441   2.249  0.0183  0.0463 -0.1139
    1W        W49733  17.107  24.635   6.938  0.0577 -0.2082  0.1848
    1W        W49734  18.963  28.693   0.937 -0.1112  0.1458 -0.1383
    1W        W49735   8.781  27.459   6.886  0.1265  0.0202  0.0748
    1W        W49736  21.774  14.104   6.683 -0.0914 -0.1500 -0.0323
    1W        W49737  21.590   2.376   0.849 -0.0117  0.1635  0.0402
    1W        W49738  26.346   3.364   3.625  0.0415 -0.3749  0.1423
    1W        W49739  28.697  30.269   7.232 -0.0078  0.1389 -0.1293
    1W        W49740  21.162  20.375   0.958 -0.0386  0.1093 -0.0813
    1W        W49741   6.711  26.085   8.755 -0.1035  0.3376  0.1718
    1W        W49742  14.866  22.984   6.083  0.0642  0.0878  0.0837
    1W        W49743  17.366  25.837   1.280  0.1678  0.0658 -0.3254
    1W        W49744  29.542   7.573   0.036  0.2768  0.0737 -0.2479
    1W        W49745   9.145  17.643   1.020 -0.1904 -0.1640 -0.0507
    1W        W49746  24.864  12.701   1.296 -0.1475  0.0729  0.2288
    1W        W49747  27.889  18.209   8.293  0.0202  0.1571  0.1642
    1W        W49748   5.041   8.629   0.769 -0.0910 -0.0546  0.0344
    1W        W49749   6.633  17.427   8.535 -0.0833 -0.0867  0.0758
    1W        W49750   5.252  15.389   1.237 -0.0561  0.2243 -0.0340
    1W        W49751  18.037   8.357   0.957  0.0473 -0.0501 -0.1059
    1W        W49752   5.455  23.684   7.037  0.0949  0.2747  0.3008
    1W        W49753  24.136  23.818   2.038 -0.2626 -0.0145  0.1104
    1W        W49754  17.925  18.571   6.248  0.0406 -0.1547  0.0997
    1W        W49755  13.830   9.017   7.634 -0.0770  0.1819 -0.1086
    1W        W49756  26.856   0.723   0.993  0.0596  0.1122  0.0862
    1W        W49757  26.492   0.735   8.425  0.2438 -0.0550 -0.1938
    1W        W49758   7.816  14.575   7.333  0.1465  0.2165  0.6416
    1W        W49759   8.718  25.788   1.778 -0.5095  0.2687  0.0613
    1W        W49760   7.835  26.050   0.167  0.0585  0.1364  0.5436
    1W        W49761   4.362  17.873   1.319  0.0631 -0.0746  0.0926
    1W        W49762  10.411   5.265   1.319  0.0424 -0.0139 -0.0591
    1W        W49763  30.206  11.938   8.953 -0.0541  0.3006  0.3012
    1W        W49764   6.666  20.075   0.848 -0.0441 -0.0555 -0.0971
    1W        W49765  19.395  26.809   2.951 -0.1704  0.0485  0.0112
    1W        W49766   8.467  14.248   1.240 -0.0872 -0.3845 -0.3115
    1W        W49767  12.118  21.382   6.491  0.0800 -0.1492  0.0908
    1W        W49768   8.439  23.160   7.463 -0.0058 -0.1884 -0.0282
    1W        W49769  16.224  15.858   2.843 -0.2205 -0.1899  0.0719
    1W        W49770  10.453  18.765   8.587 -0.0159 -0.1162 -0.0896
    1W        W49771  22.419   0.760   8.922 -0.1570 -0.2271  0.1025
    1W        W49772  27.218   1.058   3.022 -0.0671 -0.0079 -0.1898
    1W        W49773  17.080  16.953   8.161 -0.3173  0.1539 -0.1315
    1W        W49774  18.273   1.620   8.029 -0.0145  0.1358  0.1995
    1W        W49775  10.417  28.317   0.856  0.3769 -0.3412 -0.0219
    1W        W49776  18.105  17.937   2.587 -0.1264 -0.2355  0.1103
    1W        W49777   9.488   3.908   2.426  0.1560  0.1815 -0.2431
    1W        W49778  19.320  19.880   7.024  0.0405  0.0652 -0.0139
    1W        W49779  16.196   3.980   7.154  0.1586 -0.2118 -0.1095
    1W        W49780  21.954   7.663   0.435  0.0669 -0.1402 -0.1730
    1W        W49781  24.042  28.500   6.682 -0.0987 -0.1509 -0.1368
    1W        W49782  14.402   2.477   6.946  0.2636 -0.0688  0.0719
    1W        W49783   0.948  15.473   6.626 -0.0686 -0.3540  0.2674
    1W        W49784  12.323   2.659   6.887 -0.1375  0.0743  0.2251
    1W        W49785  16.398  28.291   1.352 -0.0962 -0.0422  0.1430
    1W        W49786  23.753  13.706   8.227  0.2108 -0.0687  0.0918
    1W        W49787  20.803  11.165   0.242  0.0561  0.0301  0.2303
    1W        W49788   2.459  20.175   1.966  0.2190 -0.0512  0.3153
    1W        W49789  14.967  26.642   1.643  0.1525 -0.0050 -0.4076
    1W        W49790  13.946   6.322   8.174 -0.1473  0.2717  0.0917
    1W        W49791   0.022  24.826   9.001 -0.0017  0.0967  0.0456
    1W        W49792   3.462  28.921   1.449  0.0203  0.0657  0.1872
    1W        W49793  12.558   3.080   1.051  0.1809  0.0123  0.2785
    1W        W49794  11.591  16.047   3.008 -0.1301  0.0914  0.0737
    1W        W49795  16.954  13.174   8.147 -0.1900 -0.2095  0.1327
    1W        W49796  25.178  14.336   1.020 -0.1805  0.0064  0.1662
    1W        W49797  23.391  16.635   6.504 -0.0039 -0.1959 -0.0961
    1W        W49798   6.786  25.897   7.830  0.1310  0.0378 -0.0438
    1W        W49799  20.825  10.470   5.324 -0.1341 -0.0451  0.3597
    1W        W49800  22.259  12.769   2.428  0.3320 -0.2064 -0.0430
    1W        W49801   5.813   0.122   2.352  0.1991  0.1620 -0.0688
    1W        W49802   6.512  24.140   2.509  0.1771 -0.0549  0.0388
    1W        W49803  22.084   8.146   6.429 -0.3451  0.1309 -0.1841
    1W        W49804  26.703  20.399   0.480 -0.0453  0.0365  0.1303
    1W        W49805  15.065  21.457   1.651 -0.2663 -0.1003 -0.2965
    1W        W49806   8.001  17.529   0.385 -0.0470 -0.1319 -0.2420
    1W        W49807  14.042  18.628   1.320 -0.1708 -0.0367  0.2302
    1W        W49808  24.649  14.740   8.281 -0.0350  0.1232  0.0783
    1W        W49809   0.045  25.925   8.118 -0.2427 -0.2204 -0.2641
    1W        W49810   3.045  13.506   0.306  0.3489  0.1789  0.0249
    1W        W49811  26.740  15.583   1.246  0.0788 -0.1744 -0.0669
    1W        W49812   5.929  14.571   2.551  0.0202  0.0247  0.5697
    1W        W49813  23.569  14.828   1.574 -0.0684 -0.1808  0.0133
    1W        W49814   0.104  12.576   6.881 -0.1631  0.1930  0.1446
    1W        W49815  23.915  24.426   2.566  0.0374  0.1742 -0.0993
    1W        W49816   5.292   8.649   8.148  0.0108 -0.1748  0.0505
    1W        W49817  11.128  18.806   0.276 -0.4264  0.1685 -0.1018
    1W        W49818  28.712  21.172   2.133  0.1755  0.4044  0.1994
    1W        W49819  27.512  23.386   8.845 -0.0751  0.0946 -0.0262
    1W        W49820  19.814   4.777   2.486  0.1835  0.1872 -0.2679
    1W        W49821  14.024   4.137   6.521 -0.1138  0.0876  0.0884
    1W        W49822  24.543  22.695   6.981 -0.3515  0.1380 -0.3074
    1W        W49823   3.189  22.437   8.719 -0.1031 -0.2272 -0.0950
    1W        W49824  18.063  11.206   5.992  0.0643 -0.1634 -0.1745
    1W        W49825  24.312  23.343   2.109  0.1577 -0.0420  0.0166
    1W        W49826  10.755  26.267   8.962 -0.1150  0.0099  0.1319
    1W        W49827  22.658   4.458   7.935 -0.0469 -0.3060  0.0165
    1W        W49828   1.417   5.047   2.815  0.1841  0.0804 -0.2123
    1W        W49829  29.367  13.905   8.495 -0.2580 -0.1826 -0.1717
    1W        W49830   7.689   5.253   1.795  0.1979  0.0277 -0.1805
    1W        W49831   4.148  10.547   6.884  0.0371  0.0294 -0.0940
    1W        W49832  21.680   0.309   0.852 -0.0946  0.2069  0.1908
    1W        W49833  11.963   7.747   7.529  0.0806 -0.2656 -0.3858
    1W        W49834  30.263  10.243   2.303  0.0194  0.0133 -0.2221
    1W        W49835  29.175  14.021   8.962  0.1564 -0.1016  0.0962
    1W        W49836   5.532   7.143   6.667 -0.2858  0.0777 -0.2403
    1W        W49837   2.707  20.406   6.741 -0.0451 -0.0762 -0.2192
    1W        W49838  19.956  11.213   6.622  0.0896  0.2841 -0.1019
    1W        W49839   0.876  11.308   7.108 -0.0738  0.0076 -0.3441
    1W        W49840  13.906   7.087   2.783  0.0054  0.1558  0.0717
    1W        W49841   3.862   4.350   7.963  0.0282  0.0622  0.0178
    1W        W49842  20.098  20.684   9.181 -0.0785  0.1193  0.0030
    1W        W49843   3.537  16.918   0.620 -0.1200  0.3796  0.1879
    1W        W49844  29.930  18.958   1.985 -0.0710 -0.0116 -0.3305
    1W        W49845  30.004  19.862   6.898 -0.2502  0.0101 -0.0934
    1W        W49846  19.147  21.586   6.015  0.1870  0.1363 -0.2103
    1W        W49847   1.542  27.310   8.334  0.0569  0.0498  0.0015
    1W        W49848  23.012   6.215   6.896  0.2464 -0.0218 -0.2089
    1W        W49849  20.064  21.139   8.948  0.0840 -0.0358 -0.0825
    1W        W49850  19.517  22.100   7.344 -0.1068  0.1012 -0.1080
    1W        W49851  23.540  25.515   8.206 -0.2667 -0.2280  0.0443
    1W        W49852  15.204  14.102   1.692  0.0103  0.0783 -0.0176
    1W        W49853  28.679  10.510   8.760  0.0034  0.0515 -0.1478
    1W        W49854  18.064  16.846   1.781 -0.0532 -0.0618 -0.2139
    1W        W49855   4.300  29.675   1.731  0.2065 -0.1002  0.0898
    1W        W49856  10.983  23.368   7.206 -0.1255  0.0619  0.0327
    1W        W49857   5.420  20.878   8.520  0.1015  0.4579 -0.1862
    1W        W49858  10.026  20.663   5.773  0.0358  0.1067  0.2464
    1W        W49859  28.796   3.046   9.224 -0.0307 -0.3209  0.3071
    1W        W49860   1.055   0.153   1.740  0.1304 -0.0595 -0.1172
    1W        W49861  19.121   4.762   2.164  0.1388  0.0205  0.2606
    1W        W49862  25.098  10.563   6.605  0.1613  0.0238 -0.2736
    1W        W49863   9.977   3.091   2.709  0.3075 -0.0680 -0.3020
    1W        W49864  21.245  27.548   2.523 -0.1513 -0.1488 -0.1116
    1W        W49865  19.702   3.503   1.008 -0.1812 -0.1796 -0.1585
    1W        W49866  18.400  28.850   0.924 -0.0638  0.0206  0.0344
    1W        W49867  28.957  15.114   1.194 -0.0295  0.1706  0.3223
    1W        W49868   1.428   7.586   0.333 -0.2965  0.2061  0.1311
    1W        W49869   0.703  12.026   0.316  0.4096 -0.0227  0.3565
    1W        W49870  29.429   2.054   2.380  0.1669  0.1469  0.0182
    1W        W49871  10.081  13.952   8.040  0.1570  0.1203 -0.0813
    1W        W49872  23.841  12.063   0.575 -0.0425 -0.2077  0.0731
    1W        W49873  22.814   7.903   1.342 -0.2420  0.2429 -0.1046
    1W        W49874  29.802  26.248   8.790 -0.0265 -0.3166  0.0653
    1W        W49875   1.651  11.426   1.808 -0.0341  0.0858 -0.0682
    1W        W49876  15.866  26.282   6.933 -0.1709  0.1255  0.4932
    1W        W49877  18.834  19.221   0.925  0.0602  0.1429  0.3307
    1W        W49878  29.982  27.702   1.925  0.1475  0.2768 -0.1100
    1W        W49879  19.154  17.175   6.729  0.2061  0.1233 -0.1654
    1W        W49880   4.183   8.526   8.912  0.0481 -0.3285 -0.0722
    1W        W49881  11.965  18.625   7.865  0.0497 -0.2795 -0.2697
    1W        W49882  17.349  29.439   0.604  0.0287 -0.1468  0.1185
    1W        W49883   5.094  25.338   7.340 -0.3888 -0.0730  0.0281
    1W        W49884   1.084   7.959   7.226  0.1253  0.3778  0.2009
    1W        W49885  19.973  24.182   7.111  0.3934 -0.0201  0.1491
    1W        W49886  20.181  20.001   6.689  0.0053 -0.0950  0.0251
    1W        W49887  21.292  21.917   7.868 -0.0213  0.1338  0.2421
    1W        W49888   5.548   5.089   1.445  0.1661 -0.0982 -0.2112
    1W        W49889  28.237  10.230   8.896 -0.1838  0.1483  0.0130
    1W        W49890  19.869  30.218   0.568 -0.1643 -0.2068 -0.0922
    1W        W49891  29.987   7.830   1.760 -0.0384  0.0225  0.2856
    1W        W49892  13.230   5.511   1.884 -0.2543  0.0823 -0.0127
    1W        W49893  19.248  23.723   6.998  0.0075  0.0734 -0.2779
    1W        W49894  29.728   2.229   7.276  0.5232  0.0916  0.2133
    1W        W49895  16.802  26.693   1.205  0.0194  0.0254 -0.2130
    1W        W49896  29.325  11.672   1.050  0.0132 -0.0186 -0.1574
    1W        W49897  17.774   0.158   9.114  0.0452 -0.1020  0.0927
    1W        W49898  18.530   0.851   0.300 -0.2131 -0.0989  0.1224
    1W        W49899   6.030  27.827   2.110 -0.2371 -0.0963 -0.0554
    1W        W49900   9.158  20.822   7.586 -0.1256 -0.2473  0.1158
    1W        W49901  28.380   5.966   9.093 -0.0068 -0.2630 -0.3633
    1W        W49902  29.754  19.105   6.813  0.4877 -0.4010 -0.2269
    1W        W49903  10.581  18.294   7.034 -0.0888 -0.1618  0.2666
    1W        W49904   6.587  11.060   8.645 -0.0807  0.0876 -0.2395
    1W        W49905  21.672  26.233   1.783 -0.1201  0.2836 -0.0232
    1W        W49906  29.372  10.652   7.579 -0.0775  0.0043 -0.0688
    1W        W49907   8.755   5.823   3.532  0.0757 -0.2538 -0.2532
    1W        W49908  18.121   7.689   0.381 -0.1686  0.1466 -0.0931
    1W        W49909  24.753   2.486   2.408 -0.1099 -0.0331  0.0778
    1W        W49910  30.045   6.834   1.500  0.1651  0.0371  0.1661
    1W        W49911  10.720  27.748   8.704  0.2089  0.1380 -0.1942
    1W        W49912  23.046   8.762   6.285  0.1819  0.2534  0.0545
    1W        W49913   7.515   4.415   2.189  0.1489 -0.2319 -0.1364
    1W        W49914  29.832  15.078   9.051 -0.3197  0.0330  0.2448
    1W        W49915  15.497  25.925   6.820 -0.0465 -0.1543 -0.3373
    1W        W49916  13.117   8.017   3.321  0.3841  0.2250 -0.0473
    1W        W49917  14.925  14.481   2.751  0.1037  0.0401 -0.1390
    1W        W49918  11.330  18.658   1.531  0.0785 -0.0597  0.1210
    1W        W49919  29.852  13.445   1.420  0.3901 -0.0486  0.3762
    1W        W49920  20.401  18.196   0.729 -0.2501 -0.1327 -0.1502
    1W        W49921  13.772  27.618   0.269  0.0195  0.1545 -0.0780
    1W        W49922  23.131   8.590   9.065 -0.0953  0.2469  0.2819
    1W        W49923  25.337  29.428   1.979 -0.0027  0.1750  0.0715
    1W        W49924   1.132  12.040   7.545  0.2564 -0.0402  0.2285
    1W        W49925   8.964  26.142   7.087  0.1222  0.2767  0.0970
    1W        W49926  10.579  11.680   2.711  0.0536 -0.2810  0.0141
    1W        W49927  20.313  25.395   1.930  0.0773 -0.2031 -0.2896
    1W        W49928  24.063  17.260   1.188 -0.1213  0.1899  0.2081
    1W        W49929   8.157  19.446   6.587 -0.2484 -0.3028 -0.0076
    1W        W49930  15.761  10.391   1.982  0.0561  0.0770 -0.0837
    1W        W49931  15.717  15.309   8.124 -0.1487  0.1122 -0.1087
    1W        W49932  15.879   2.535   0.424 -0.4211  0.1146  0.3425
    1W        W49933  17.035  27.789   1.623 -0.1483  0.2543  0.1201
    1W        W49934   6.914   4.363   1.074  0.0015  0.0504  0.0224
    1W        W49935  12.063  27.011   3.155 -0.1128  0.0163  0.0432
    1W        W49936  24.001   5.556   2.793 -0.0710  0.0638  0.2925
    1W        W49937  24.978  22.991   0.979  0.1866 -0.1100  0.4894
    1W        W49938   3.429  26.517   8.891 -0.2703 -0.1538 -0.1605
    1W        W49939  23.725  19.962   7.968 -0.4120  0.1675  0.0770
    1W        W49940  28.201  15.974   8.063  0.1576  0.1416 -0.4080
    1W        W49941  10.760  15.651   7.099  0.1844  0.0834  0.3209
    1W        W49942   7.658   3.904   7.295 -0.0337  0.0132  0.0402
    1W        W49943  21.463  24.064   2.384 -0.0416 -0.0580 -0.0753
    1W        W49944   8.907   8.611   1.718  0.1537  0.1128 -0.1362
    1W        W49945  24.230  23.966   7.127  0.0486  0.0993 -0.0954
    1W        W49946  26.952  19.471   8.216 -0.1057 -0.1386  0.1403
    1W        W49947   0.136  18.834   7.607  0.0254 -0.0213 -0.2451
    1W        W49948  26.450   6.154   8.971  0.1243 -0.1514  0.1415
    1W        W49949   9.019  23.950   1.117 -0.0869  0.1000  0.2416
    1W        W49950  22.195  26.151   0.144 -0.0747 -0.2009 -0.2602
    1W        W49951  24.196  19.663   0.956 -0.1261 -0.0182 -0.3520
    1W        W49952  20.814   9.733   2.259 -0.0211 -0.1499  0.1376
    1W        W49953   3.896  12.018   1.444  0.0424 -0.0918 -0.0980
    1W        W49954  18.368   1.704   3.009 -0.0555 -0.2147 -0.0905
    1W        W49955  26.520  27.490   0.407 -0.4757 -0.0337 -0.0023
    1W        W49956  30.279   8.847   2.292  0.1773 -0.0398  0.0717
    1W        W49957   5.169   3.253   8.410 -0.0053 -0.2731 -0.2291
    1W        W49958  21.626   7.294   0.650  0.0464  0.3429  0.1877
    1W        W49959  11.272  25.801   1.495 -0.0691  0.0286  0.0630
    1W        W49960   9.577   6.550   0.963  0.0309  0.1821 -0.0766
    1W        W49961  18.579  16.950   2.061 -0.2324 -0.0491 -0.0532
    1W        W49962  28.422  16.959   1.044 -0.0291  0.0346  0.0876
    1W        W49963  18.634  29.477   8.832  0.1073 -0.1660  0.1053
    1W        W49964  27.405  29.545   8.749  0.0932  0.4204 -0.2484
    1W        W49965  29.642   8.961   8.017  0.0457  0.2077 -0.0726
    1W        W49966  29.379  25.788   0.230 -0.0173  0.1347  0.0451
    1W        W49967  29.114  26.435   7.178  0.0021 -0.1538 -0.0013
    1W        W49968  14.231   5.956   2.418  0.1904  0.1141  0.3521
    1W        W49969   1.869  21.033   1.344  0.0336 -0.2472 -0.1974
    1W        W49970  24.987  27.394   8.166  0.1090 -0.0943  0.1766
    1W        W49971   2.289  24.991   7.952 -0.2395  0.0023  0.1823
    1W        W49972   3.254  17.282   6.885 -0.1543  0.2913 -0.0336
    1W        W49973  14.311   3.330   0.860 -0.1279 -0.0711 -0.1075
    1W        W49974  14.896  10.962   1.471 -0.0559  0.2202  0.2082
    1W        W49975  25.665   5.978   1.292  0.1334 -0.2135 -0.1435
    1W        W49976  12.858  15.453   7.854 -0.0242 -0.1034 -0.2693
    1W        W49977   5.072  12.681   0.689 -0.1800  0.0986  0.1131
    1W        W49978  11.360  17.421   0.871  0.2912  0.1233 -0.0474
    1W        W49979   2.230  17.764   7.471 -0.0034  0.0750  0.0924
    1W        W49980   7.741  20.587   7.257  0.1742 -0.2767 -0.0297
    1W        W49981  21.426  15.681   5.652 -0.4422 -0.2547  0.0531
    1W        W49982   1.023  14.000   7.533 -0.1648  0.1451 -0.1469
    1W        W49983   9.649  14.265   8.013  0.1458 -0.0401  0.1873
    1W        W49984   2.186  17.133   8.612 -0.0165  0.0029 -0.1672
    1W        W49985  15.311  20.712   7.640  0.0756  0.0745 -0.5655
    1W        W49986  30.061  14.574   8.277 -0.1636 -0.1035 -0.0175
    1W        W49987   2.309  19.894   7.195 -0.0621 -0.1152  0.2558
    1W        W49988  21.248  26.179   0.389 -0.0386  0.0623  0.3749
    1W        W49989  18.056   7.095   8.468  0.1312 -0.0207  0.1018
    1W        W49990  15.702  29.295   1.495 -0.1347 -0.1063 -0.2457
    1W        W49991  16.736  29.283   2.199 -0.0332 -0.3340  0.0543
    1W        W49992  10.330   4.363   7.735  0.0058 -0.0594  0.2223
    1W        W49993  19.570   6.742   8.030 -0.0172  0.0953 -0.3180
    1W        W49994  22.463  17.354   8.114 -0.1681  0.0802  0.0062
    1W        W49995   8.430   3.646   9.074  0.2603 -0.4523  0.0784
    1W        W49996  29.129   6.864   8.075 -0.1639  0.2354 -0.0721
    1W        W49997  19.064  25.829   1.469  0.0107 -0.0591  0.0808
    1W        W49998  16.422  15.225   6.806  0.3833  0.4228  0.0669
    1W        W49999   0.083   1.333   0.166 -0.1006 -0.4161  0.0549
    1W        W50000   5.056   6.537   0.118 -0.0817  0.0451 -0.0586
    1W        W50001  27.942  24.013   0.177  0.2073 -0.0698  0.0669
    1W        W50002  27.775  30.029   2.866  0.1384  0.1139  0.0241
    1W        W50003  29.475  12.556   6.987 -0.2231  0.1409  0.1289
    1W        W50004  15.226  12.623   0.978 -0.3374 -0.0119 -0.0752
    1W        W50005  22.049   1.401   8.895 -0.2289 -0.0036  0.1587
    1W        W50006  19.372   4.496   7.733  0.2772 -0.0012 -0.1139
    1W        W50007  16.985   9.923   1.066  0.0275  0.1130 -0.1113
    1W        W50008   9.688   3.298   1.156  0.2789 -0.2268  0.2307
    1W        W50009  11.960  28.654   9.111  0.2207  0.0289 -0.1379
    1W        W50010   6.467  29.402   2.876  0.3556 -0.1398  0.1294
    1W        W50011  20.763   6.611   2.346  0.2424 -0.0276  0.1930
    1W        W50012  12.673  11.866   1.235 -0.0127 -0.1551 -0.0261
    1W        W50013  24.289  14.696   7.914 -0.1109  0.0538  0.0404
    1W        W50014   7.487  19.058   7.926 -0.0837  0.0032 -0.0883
    1W        W50015  12.579  21.455   8.048  0.1700  0.0081 -0.2931
    1W        W50016  16.917   7.426   0.882  0.4224  0.0675 -0.1082
    1W        W50017   9.836  27.285   1.667 -0.0892  0.3588  0.0491
    1W        W50018   6.746  19.680   0.186  0.0276 -0.0180 -0.2764
    1W        W50019   0.347  18.114   6.415 -0.0794  0.2592 -0.1545
    1W        W50020  18.817  10.321   7.800  0.2514  0.1545  0.0953
    1W        W50021   4.993   0.196   0.707 -0.1177  0.0738 -0.0435
    1W        W50022  22.765  25.889   8.482 -0.0150 -0.0133  0.1961
    1W        W50023   5.518  28.581   8.310  0.2103 -0.1508 -0.0641
    1W        W50024   9.855  23.200   9.118  0.2025 -0.2022  0.0632
    1W        W50025   8.953   6.386   1.347  0.0084  0.0908  0.1745
    1W        W50026  11.719   2.032   1.271 -0.0385  0.4330  0.0368
    1W        W50027   8.748   2.436   7.959  0.0826  0.1213 -0.0387
    1W        W50028  29.586  22.108   2.289  0.0664 -0.1700  0.1754
    1W        W50029   2.810  14.263   6.390  0.3658 -0.1381 -0.2244
    1W        W50030  28.615  26.136   0.526  0.2124 -0.0467 -0.1386
    1W        W50031   1.353  14.658   6.463 -0.1687  0.0509 -0.0360
    1W        W50032  11.333  21.166   6.109 -0.0376 -0.3541 -0.0793
    1W        W50033  18.343  28.101   1.648  0.0939 -0.0263 -0.1126
    1W        W50034  27.637  25.800   1.278 -0.1285 -0.0484 -0.0432
    1W        W50035  30.024  28.168   6.607 -0.1379 -0.0383 -0.0642
    1W        W50036  15.609  28.121   7.794 -0.1828 -0.1077  0.1148
    1W        W50037  19.862  11.891   9.224  0.1074  0.1006  0.5113
    1W        W50038  21.133  23.212   6.480 -0.0116 -0.1152  0.0694
    1W        W50039   5.663  27.163   2.552 -0.1242 -0.0828  0.2156
    1W        W50040  18.175  10.733   8.502 -0.0898  0.2521  0.0267
    1W        W50041  25.253   7.623   2.588 -0.0400  0.1074  0.2636
    1W        W50042  15.424  18.744   0.099 -0.3029  0.1015  0.1484
    1W        W50043  22.613  19.836   1.155  0.0316 -0.0037 -0.1668
    1W        W50044  16.147   5.362   1.819 -0.0825  0.0157 -0.0376
    1W        W50045  20.274   8.045   1.720  0.1590  0.2707  0.2958
    1W        W50046  17.614   3.806   1.890 -0.0847 -0.0003 -0.3104
    1W        W50047  19.205  17.199   0.848 -0.3097 -0.1086  0.0521
    1W        W50048  18.145  14.411   7.059 -0.1308 -0.0186 -0.0898
    1W        W50049   6.744  29.594   7.639  0.3696 -0.0818  0.0764
    1W        W50050  17.418  23.994   0.708  0.2254 -0.2137  0.1292
    1W        W50051   6.995  16.838   6.867 -0.3805  0.0099 -0.0988
    1W        W50052   5.067  11.898   8.923  0.3040  0.2893  0.1306
    1W        W50053   8.485  29.541   2.133  0.0878 -0.0035  0.1453
    1W        W50054  24.135   7.094   0.136  0.0231 -0.2287 -0.0586
    1W        W50055  12.917  12.302   2.187 -0.1448 -0.0601 -0.0275
    1W        W50056   5.717  13.121   0.046  0.1814  0.1777 -0.0888
    1W        W50057  11.805   3.510   0.868 -0.1029 -0.1456  0.0971
    1W        W50058  18.854  13.112   0.240 -0.1079  0.1000  0.0660
    1W        W50059   3.075  16.736   7.127  0.1062 -0.1846 -0.2201
    1W        W50060  25.095  19.130   7.321  0.0668  0.0353 -0.1266
    1W        W50061  26.314   7.668   6.771 -0.1262  0.2303  0.0816
    1W        W50062  17.118  22.818   2.417  0.1251 -0.0646  0.2094
    1W        W50063  28.594  23.493   1.721  0.2661 -0.2798  0.0029
    1W        W50064  12.020  10.734   2.186 -0.0854 -0.0627 -0.1433
    1W        W50065   5.749   8.709   6.820 -0.5159  0.1138 -0.3116
    1W        W50066  29.671  16.307   6.986  0.2530  0.0104 -0.1498
    1W        W50067  10.687  22.649   7.757  0.2282  0.2348 -0.1546
    1W        W50068   2.823  12.618   1.903  0.2213 -0.0896 -0.1987
    1W        W50069   6.640  24.390   2.102 -0.2150 -0.3009  0.2307
    1W        W50070  12.251   2.800   0.600 -0.5207  0.1253 -0.0558
    1W        W50071  15.820  11.030   7.747  0.1051  0.1705 -0.2163
    1W        W50072  25.737  25.952   0.255 -0.0797 -0.0258  0.1251
    1W        W50073  16.582   7.904   0.183  0.2616  0.3022  0.1558
    1W        W50074  15.529   4.813   9.095  0.1028  0.0584 -0.1264
    1W        W50075  28.982  25.933   2.686  0.0404 -0.0597  0.0099
    1W        W50076   0.461  20.213   0.054 -0.0648 -0.0741  0.3648
    1W        W50077  19.091   6.023   1.450  0.2262 -0.0499  0.2272
    1W        W50078   8.237  29.292   3.115  0.0045 -0.2634 -0.0819
    1W        W50079  29.692   9.222   1.044 -0.0240  0.0278 -0.0478
    1W        W50080   9.187   5.589   2.316 -0.0919  0.3127  0.3036
    1W        W50081   7.297   4.706   0.709 -0.3150  0.2365  0.2159
    1W        W50082   3.592  17.923   0.917 -0.2307 -0.2998  0.2118
    1W        W50083   7.483  29.439   6.817 -0.1416 -0.1283  0.0868
    1W        W50084  14.488   1.289   9.147  0.0382  0.1051 -0.0548
    1W        W50085  22.239   8.520   6.728  0.1233 -0.4103 -0.0350
    1W        W50086  22.268   8.812   1.837  0.2104  0.2736  0.1813
    1W        W50087  28.764  19.447   7.968 -0.0073 -0.0362 -0.1566
    1W        W50088  15.773   8.103   8.999 -0.1018  0.1113 -0.1921
    1W        W50089   9.523  18.302   7.141 -0.0208  0.0172  0.0587
    1W        W50090  20.264   1.714   1.563 -0.1284 -0.2252  0.1912
    1W        W50091   0.886  28.390   0.072  0.2864  0.0865  0.1976
    1W        W50092  25.283  25.380   7.536 -0.3038 -0.3088 -0.5020
    1W        W50093  17.041  11.931   1.259  0.0300  0.2820  0.0722
    1W        W50094  26.169   8.773   2.799 -0.1304  0.0657  0.1573
    1W        W50095   3.363   0.180   8.237 -0.0520 -0.1688  0.0336
    1W        W50096  11.249  16.460   0.911 -0.0442  0.2501  0.1172
    1W        W50097   0.421   2.859   6.992 -0.1638  0.0767 -0.2483
    1W        W50098  29.557  22.009   8.309 -0.0815 -0.1050 -0.1171
    1W        W50099  22.331  16.421   0.195 -0.0146 -0.1748  0.1543
    1W        W50100  23.979  30.186   9.050 -0.0809  0.0305  0.2143
    1W        W50101  26.102  15.048   7.019 -0.1467 -0.1219 -0.3077
    1W        W50102   0.452  14.877   7.781 -0.0978  0.3458  0.2672
    1W        W50103  25.133   9.164   2.473 -0.0363  0.1724 -0.1042
    1W        W50104   7.511  15.678   0.766  0.1605 -0.1115 -0.1095
    1W        W50105  23.949  25.421   0.390  0.0432  0.1230 -0.1158
    1W        W50106   7.785  23.114   6.138  0.1387  0.3482  0.0929
    1W        W50107  28.483  10.564   7.058 -0.2463 -0.2144  0.3566
    1W        W50108  10.166  17.277   9.195 -0.0975  0.0567 -0.1609
    1W        W50109  17.197   6.323   0.889  0.0743 -0.1760  0.2496
    1W        W50110  12.176  20.031   0.021 -0.1505 -0.1231  0.1042
    1W        W50111   4.782  29.344   0.327 -0.0711 -0.0065 -0.1385
    1W        W50112   5.268  16.836   6.738 -0.0458  0.0504  0.1031
    1W        W50113  11.995  23.395   8.751 -0.1779  0.1272  0.2576
    1W        W50114   8.083  10.691   7.673  0.2205  0.1057 -0.0999
    1W        W50115   0.151  21.790   7.228 -0.0564 -0.1551 -0.0164
    1W        W50116   1.248   3.536   1.399 -0.1490  0.0020  0.0716
    1W        W50117  23.351  20.404   1.711  0.2432  0.1160  0.1790
    1W        W50118  29.385  11.154   7.807  0.1333  0.2744  0.2255
    1W        W50119  10.058  23.573   2.323  0.1473 -0.2242  0.3612
    1W        W50120   3.441   1.413   0.642 -0.0163  0.2441 -0.2419
    1W        W50121  29.802  27.412   0.010  0.0162  0.0667 -0.2725
    1W        W50122  15.021  17.645   7.832  0.1743 -0.1781 -0.1627
    1W        W50123   6.048  28.684   9.132  0.0693  0.0769  0.1545
    1W        W50124  21.560   2.358   1.893  0.0485 -0.1017 -0.0666
    1W        W50125   6.616  16.854   0.942 -0.1977 -0.2416  0.0667
    1W        W50126  13.104  10.127   7.267 -0.1231 -0.3356  0.5711
    1W        W50127  19.308   7.650   8.549 -0.1709 -0.2170 -0.1664
    1W        W50128   4.097   5.741   6.022  0.0146  0.0612  0.0794
    1W        W50129  16.855   1.737   0.075 -0.1029  0.0346  0.1224
    1W        W50130  13.619  12.129   6.985  0.0323 -0.1930 -0.5507
    1W        W50131   5.976  28.393   8.608 -0.0537  0.0461 -0.3153
    1W        W50132  29.554   2.256   8.102  0.0181 -0.1039  0.2094
    1W        W50133  16.597  15.659   2.065 -0.1076  0.0290  0.1436
    1W        W50134   8.009  23.905   0.023 -0.1025 -0.2605 -0.3955
    1W        W50135  15.520  16.811   7.340  0.0456  0.0201  0.1890
    1W        W50136  21.868  24.286   1.877 -0.1203  0.1642  0.1434
    1W        W50137   4.591  29.805   0.392 -0.1372 -0.4157 -0.1102
    1W        W50138   0.686  24.482   0.398  0.1351 -0.1344 -0.0859
    1W        W50139  18.340  26.859   2.120 -0.0411  0.1561 -0.2958
    1W        W50140   6.960  24.986   8.074 -0.1702 -0.1334 -0.0669
    1W        W50141  13.241  21.749   1.211  0.2051 -0.2186  0.1291
    1W        W50142  30.207   1.313   8.167  0.0154  0.2083  0.1712
    1W        W50143   7.885  26.060   2.203  0.1776 -0.3046 -0.0840
    1W        W50144  13.299  30.287   6.439  0.4359 -0.0002  0.2600
    1W        W50145  21.906  25.015   7.615 -0.0372  0.0410  0.0114
    1W        W50146  14.325   6.137   6.768  0.0480 -0.1442 -0.1021
    1W        W50147   1.785   2.552   8.683 -0.2069  0.0510  0.0858
    1W        W50148  26.912  18.886   7.686  0.2173 -0.2362  0.0635
    1W        W50149  24.453  27.444   1.300  0.1872  0.2958 -0.0648
    1W        W50150  25.542  26.525   8.380  0.2705 -0.2455 -0.2943
    1W        W50151  25.593  16.836   7.770  0.0093 -0.1067 -0.2616
    1W        W50152   0.969  29.422   0.045 -0.0407  0.0063  0.0405
    1W        W50153   7.813  27.900   7.524  0.0124 -0.3122 -0.1053
    1W        W50154  29.698  21.677   6.653 -0.3180  0.0548  0.0157
    1W        W50155  12.012   9.581   2.140 -0.0036  0.2863  0.0816
    1W        W50156   2.663  14.924   8.575 -0.4249  0.2553  0.2097
    1W        W50157  17.534   5.499   8.332  0.1811 -0.0757  0.1539
    1W        W50158  24.949  29.732   8.163 -0.0697  0.0547  0.0263
    1W        W50159   9.863  20.619   7.089 -0.0859 -0.0171  0.2134
    1W        W50160  27.735  14.139   7.460  0.0454  0.2403 -0.1621
    1W        W50161  11.742   5.490   1.872 -0.1430  0.0425 -0.1968
    1W        W50162  15.652  23.692   8.107 -0.1735 -0.1007  0.0644
    1W        W50163  10.325   3.977   2.697  0.1244  0.3587  0.1142
    1W        W50164   9.885   4.880   3.029 -0.1483  0.1021 -0.1268
    1W        W50165  22.315   9.671   8.737  0.1791  0.1841  0.1837
    1W        W50166  25.794  18.881   1.254  0.0558  0.1362 -0.1340
    1W        W50167   3.369  14.260   0.946  0.2646 -0.3888 -0.2812
    1W        W50168  24.415  14.548   6.016 -0.3653  0.3049  0.3744
    1W        W50169  29.800  10.545   8.993 -0.2208  0.0664  0.2104
    1W        W50170  24.266   8.454   7.671  0.2793 -0.4153  0.0796
    1W        W50171   1.353  15.091   1.269 -0.0803 -0.2043  0.0250
    1W        W50172  27.537   4.289   1.503 -0.1454 -0.2080  0.0680
    1W        W50173  17.821   4.686   1.511 -0.5191 -0.1041 -0.0836
    1W        W50174  14.195  10.369   1.946 -0.4040 -0.0865 -0.3662
    1W        W50175  24.851  24.032   8.636  0.2857 -0.1010 -0.2270
    1W        W50176  26.538   1.255   8.278  0.0294 -0.0783 -0.2976
    1W        W50177   0.965  20.136   7.190  0.4618 -0.0915  0.0787
    1W        W50178  22.422  20.962   6.287  0.2011  0.0539 -0.1681
    1W        W50179  29.950  29.375   1.842 -0.1150 -0.3261 -0.0342
    1W        W50180   5.137  17.171   1.499 -0.2202  0.0952  0.0220
    1W        W50181   6.981   5.356   3.068 -0.1191 -0.0962 -0.1735
    1W        W50182  10.464  26.070   8.204  0.0585  0.0857 -0.2444
    1W        W50183   3.472  16.259   1.704 -0.1533  0.1048 -0.1389
    1W        W50184  24.713   2.814   9.119  0.1209  0.0885  0.0678
    1W        W50185   1.814  29.202   0.757  0.1899 -0.0806  0.2132
    1W        W50186   7.380  15.414   9.152  0.0215 -0.1416 -0.1175
    1W        W50187  24.396   9.051   7.597 -0.1453  0.1467  0.0211
    1W        W50188   9.118  21.199   7.958  0.1731  0.0643  0.1263
    1W        W50189  27.678  11.148   8.383 -0.0589  0.1856 -0.4116
    1W        W50190  12.593  16.430   7.999  0.1855 -0.0619  0.2014
    1W        W50191  15.641  14.153   1.349  0.2819 -0.0958  0.3985
    1W        W50192  25.345  14.777   0.810  0.1312  0.1221 -0.2936
    1W        W50193  20.769  24.457   2.674 -0.3743  0.1144 -0.0685
    1W        W50194   6.639  15.236   0.445  0.0447 -0.0936 -0.1985
    1W        W50195   9.305   1.515   0.800 -0.1398 -0.1199  0.0122
    1W        W50196  21.642  29.609   9.101 -0.2610  0.0371 -0.0134
    1W        W50197  25.626  19.438   0.109 -0.0852  0.1186  0.0227
    1W        W50198   9.848   3.062   0.740 -0.0131  0.2975 -0.0378
    1W        W50199  27.921   4.438   0.030 -0.2281 -0.3772 -0.2435
    1W        W50200   9.826   6.059   8.982  0.3063 -0.1984  0.2459
    1W        W50201  21.711  25.206   1.846 -0.0763  0.2348 -0.4445
    1W        W50202   9.603  11.108   2.264  0.3194 -0.1445 -0.0797
    1W        W50203  18.830  23.803   7.218 -0.1896  0.1577  0.1583
    1W        W50204  22.593  28.959   1.785 -0.1218 -0.0962  0.2029
    1W        W50205   6.927  18.145   0.562 -0.0818 -0.2809  0.1706
    1W        W50206   0.115   1.294   1.065  0.1610 -0.3117  0.2503
    1W        W50207   5.669  14.567   8.591 -0.2784 -0.0424 -0.0884
    1W        W50208   8.529  11.319   3.193 -0.4624  0.0281  0.2956
    1W        W50209  22.451   6.125   0.362 -0.2662  0.1597 -0.2898
    1W        W50210   0.565   7.995   0.378 -0.0093 -0.0756 -0.0445
    1W        W50211  11.867   3.385   1.326 -0.0927  0.3057  0.0627
    1W        W50212  27.867  26.814   8.211 -0.2437  0.2689  0.0028
    1W        W50213  28.015  15.730   7.226 -0.0123  0.3085  0.1553
    1W        W50214   6.016  19.554   6.210 -0.1421  0.0188 -0.2662
    1W        W50215   7.274   0.563   0.748  0.0546 -0.1271 -0.1813
    1W        W50216   4.028  11.159   2.480 -0.2250 -0.2796  0.0690
    1W        W50217   6.832   0.395   0.646 -0.0034  0.0165 -0.0204
    1W        W50218  24.751   8.654   1.147  0.0436 -0.1802  0.2011
    1W        W50219  16.955  19.837   7.071 -0.1598 -0.0277  0.1124
    1W        W50220  15.902  18.970   2.713 -0.2498  0.5716 -0.1612
    1W        W50221  19.977  12.119   8.040 -0.0495 -0.0326 -0.1401
    1W        W50222   7.022  25.469   7.536 -0.2399 -0.0512  0.2002
    1W        W50223  25.219   4.986   3.745 -0.3405  0.1492  0.2040
    1W        W50224   3.033  20.710   7.799  0.2743 -0.0358  0.2394
    1W        W50225  29.050   7.314   7.773 -0.1093 -0.1390  0.2173
    1W        W50226   4.065  20.137   0.315 -0.1725  0.1095 -0.0254
    1W        W50227   8.657  28.986   0.850  0.2015  0.1923 -0.1577
    1W        W50228  16.696  19.830   8.255  0.1344  0.0942  0.2175
    1W        W50229   8.250   5.847   2.713 -0.0037  0.2787 -0.2574
    1W        W50230  30.189  12.688   1.947 -0.0567  0.0922 -0.2502
    1W        W50231  28.638   8.387   0.223 -0.1019  0.0713 -0.4430
    1W        W50232  22.067  12.437   0.972 -0.0767 -0.0463  0.1062
    1W        W50233  21.279   1.451   7.296 -0.0313  0.0116 -0.3183
    1W        W50234   6.295   2.172   3.123  0.0387  0.0171 -0.0502
    1W        W50235  23.542  27.899   2.216 -0.1826  0.2821 -0.0281
    1W        W50236   1.444   6.636   7.522 -0.0591  0.2111 -0.1677
    1W        W50237   4.197   2.572   1.797  0.1068  0.0748 -0.2550
    1W        W50238   4.768  11.984   0.619  0.1361 -0.0942  0.0627
    1W        W50239   3.835   7.602   0.268  0.0213 -0.3332  0.2084
    1W        W50240  24.033  25.843   8.121 -0.1973  0.1264 -0.0127
    1W        W50241  23.596  20.278   6.203 -0.0320  0.1389  0.3003
    1W        W50242  14.036  20.583   8.737 -0.1084 -0.0848  0.1449
    1W        W50243  14.164  22.373   1.205 -0.1502  0.1219  0.0273
    1W        W50244  13.024   0.763   0.526  0.4681 -0.0656  0.1948
    1W        W50245  17.734  19.944   7.228  0.1867 -0.0191  0.0287
    1W        W50246  25.866   8.571   0.282  0.2784 -0.1458  0.0756
    1W        W50247  13.286   0.267   1.596 -0.0338  0.0991 -0.3956
    1W        W50248   8.277  28.489   1.700 -0.1622  0.0755  0.0070
    1W        W50249  10.992   6.321   7.438  0.3333  0.0714 -0.1505
    1W        W50250   3.067   3.073   0.698 -0.4252  0.2727  0.0347
    1W        W50251  30.305  28.623   7.592 -0.0172 -0.3124  0.1804
    1W        W50252  25.001  20.734   0.164 -0.0718  0.2490 -0.3639
    1W        W50253   4.589   3.555   0.702  0.1613  0.0787 -0.0295
    1W        W50254  16.019   8.896   0.104 -0.0090  0.0456  0.0035
    1W        W50255  24.332  29.275   9.010  0.1042 -0.3231  0.1383
    1W        W50256  13.606   4.351   0.787 -0.3448  0.1016 -0.1151
    1W        W50257  29.800  26.968   3.637  0.0506  0.2034 -0.0403
    1W        W50258  26.461  27.966   0.666 -0.2724  0.0668  0.4662
    1W        W50259  29.876   3.850   1.350  0.1289  0.1692 -0.1022
    1W        W50260   1.211  13.865   9.204  0.2884  0.4751  0.2725
    1W        W50261  21.005  16.534   1.694  0.0373 -0.1238  0.1941
    1W        W50262  10.055  14.529   0.100 -0.1856 -0.2137 -0.0643
    1W        W50263  12.165   6.399   0.862  0.1231  0.1450 -0.0231
    1W        W50264   2.456  20.467   7.901 -0.0313  0.0398  0.1635
    1W        W50265  22.851   9.873   5.758 -0.1712  0.0279 -0.0241
    1W        W50266  25.596   5.490   1.522 -0.2031 -0.1002 -0.2374
    1W        W50267   0.606  21.434   6.315 -0.0537 -0.1347 -0.1131
    1W        W50268  12.540  16.307   1.859  0.3757  0.1438 -0.3272
    1W        W50269  15.951   0.909   7.642  0.0566  0.1927 -0.0010
    1W        W50270  24.715  21.480   6.394  0.1355  0.2865 -0.0246
    1W        W50271   5.732   2.231   1.395  0.0633 -0.0426  0.1526
    1W        W50272  29.636  13.457   7.638 -0.0776  0.1831  0.2553
    1W        W50273  27.705  22.232   8.196  0.0323  0.0400  0.0627
    1W        W50274  23.704  26.182   8.403 -0.0779 -0.0523 -0.3845
    1W        W50275  11.588  19.932   0.616  0.0430 -0.1923  0.1879
    1W        W50276   2.128  17.367   0.831  0.1589  0.1351 -0.0962
    1W        W50277  25.413  15.838   7.509  0.4525 -0.0936  0.4254
    1W        W50278   6.834   8.363   7.568 -0.2524  0.1939 -0.0817
    1W        W50279   4.012  27.155   8.921 -0.1370  0.0212 -0.0237
    1W        W50280   7.719   2.520   1.566  0.0104 -0.1630  0.0871
    1W        W50281  12.572  28.044   1.973 -0.2384 -0.1099 -0.0341
    1W        W50282  13.767   3.406   0.836 -0.2355 -0.0927  0.1231
    1W        W50283  19.930   5.700   8.240 -0.1152  0.1090  0.0205
    1W        W50284   9.524   3.673   0.204  0.0617 -0.0957 -0.2344
    1W        W50285  26.305   9.127   0.767  0.2777  0.1606 -0.1491
    1W        W50286  28.324   0.786   0.143  0.0460 -0.0181  0.0383
    1W        W50287  22.658  13.384   8.333 -0.1226 -0.1140 -0.1137
    1W        W50288   9.491  10.039   1.265  0.3760  0.1422  0.1733
    1W        W50289  10.703  13.446   0.772 -0.0726 -0.0755 -0.2293
    1W        W50290  12.224  11.583   1.841  0.0508  0.1731  0.0964
    1W        W50291  23.229  23.231   0.067 -0.2466  0.0753  0.0174
    1W        W50292   3.494  20.117   8.856 -0.2559  0.0268  0.0588
    1W        W50293  17.207   3.688   0.269 -0.3266  0.1206  0.0741
    1W        W50294  26.858   9.198   2.243  0.0240 -0.0234  0.3793
    1W        W50295  13.025  26.200   8.201  0.0550  0.2205  0.2931
    1W        W50296  20.088  26.699   7.227  0.0208 -0.0144  0.1621
    1W        W50297  22.305  17.976   6.645  0.0542  0.1340  0.0472
    1W        W50298  16.833   7.180   2.121  0.1032  0.0964 -0.2263
    1W        W50299  22.442  25.599   2.176  0.2169 -0.2732 -0.3116
    1W        W50300   1.666  13.478   0.645 -0.4688  0.1241 -0.1171
    1W        W50301  22.335  10.511   1.764 -0.2333  0.0138  0.1747
    1W        W50302  25.414  20.986   0.980  0.3365 -0.0756  0.2270
    1W        W50303  21.842   3.154   8.642 -0.0949  0.1395  0.1483
    1W        W50304  22.420   1.678   8.590  0.3810  0.0479  0.0082
    1W        W50305  15.724   1.502   7.576  0.1784  0.1788  0.0558
    1W        W50306   2.864  16.769   2.171  0.0323  0.1947  0.2529
    1W        W50307   9.645  24.602   8.938 -0.0921 -0.1447 -0.0037
    1W        W50308  26.295  27.636   2.496  0.1273  0.1160  0.1270
    1W        W50309  15.352  22.697   0.831  0.1815  0.3557  0.1473
    1W        W50310  13.605   2.429   3.124 -0.2197  0.0190 -0.4861
    1W        W50311  16.367   8.436   2.005 -0.2326  0.2820  0.1829
    1W        W50312   5.879   5.938   1.141 -0.0664  0.0129  0.0191
    1W        W50313   2.017  23.854   9.270  0.0649 -0.1120  0.0828
    1W        W50314  23.759  13.262   6.946 -0.5636  0.0269  0.0716
    1W        W50315  20.119  25.615   7.196 -0.3511  0.0555  0.2330
    1W        W50316  22.816  28.814   8.779  0.1088 -0.0043  0.1371
    1W        W50317  14.749   2.930   6.835  0.3520 -0.2327  0.0163
    1W        W50318  15.768  27.375   8.800 -0.1009 -0.1317 -0.2039
    1W        W50319  17.561  20.467   0.806  0.1482 -0.0751  0.0981
    1W        W50320   0.450  25.292   7.279 -0.0569 -0.2357 -0.2056
    1W        W50321  18.192  21.845   6.630 -0.0795  0.3001 -0.1554
    1W        W50322  29.788  22.066   7.343  0.1967 -0.3411 -0.0703
    1W        W50323  11.840   3.756   7.929  0.2859  0.0391 -0.2608
    1W        W50324  23.001   8.213   8.765 -0.0786  0.1843  0.2955
    1W        W50325   8.053  15.118   8.564 -0.2309  0.2885  0.1260
    1W        W50326  28.595  17.275   1.619 -0.1167  0.3704  0.3968
    1W        W50327   4.187  23.284   8.121  0.3974  0.3453  0.1320
    1W        W50328  16.318  22.401   2.131  0.1210  0.0788  0.1608
    1W        W50329   8.204  28.600   1.003  0.0193 -0.1189 -0.0908
    1W        W50330  12.733  12.086   7.655  0.0968  0.0810 -0.1935
    1W        W50331  28.933   2.952   8.233  0.0048  0.1060 -0.2438
    1W        W50332   1.291  18.654   1.100 -0.0657  0.0811  0.0855
    1W        W50333   7.596   7.214   6.940 -0.1324  0.0827 -0.4711
    1W        W50334   4.049  21.540   7.443  0.5286 -0.2413  0.3910
    1W        W50335  17.599  25.829   9.228 -0.0068 -0.0295  0.0829
    1W        W50336  24.861  12.408   5.771 -0.1823  0.4645  0.2841
    1W        W50337   2.506   2.505   2.020 -0.0709  0.0150  0.0224
    1W        W50338  23.038  11.321   8.201 -0.3288 -0.1204 -0.1897
    1W        W50339  17.142  27.773   1.147  0.1930 -0.1965  0.0103
    1W        W50340   8.427  19.026   6.643 -0.0693  0.0550  0.0462
    1W        W50341   6.422  29.437   8.659  0.0790  0.2738 -0.1448
    1W        W50342   7.423   5.820   0.797 -0.2264 -0.3841  0.0508
    1W        W50343   5.743  20.611   1.849 -0.1700  0.0807  0.0865
    1W        W50344   7.186  22.894   8.464  0.3180  0.2162  0.1165
    1W        W50345   5.411   3.822   7.089 -0.1023 -0.0573  0.0806
    1W        W50346   4.293   5.666   6.514  0.3057  0.2842 -0.1141
    1W        W50347  23.588   1.089   7.388  0.0596 -0.1583 -0.0481
    1W        W50348  11.369  19.066   7.764 -0.0398  0.0564 -0.0998
    1W        W50349  10.855  28.415   2.096  0.0961  0.1498 -0.0292
    1W        W50350  28.482   2.365   3.462 -0.0630  0.0447 -0.1525
    1W        W50351  25.801  25.486   1.498 -0.0963  0.3374 -0.1790
    1W        W50352  11.241  18.563   6.681 -0.1555  0.0175  0.3519
    1W        W50353  18.683  18.431   7.303  0.1919 -0.1602  0.2419
    1W        W50354  18.624   6.088   1.126  0.2538 -0.2205 -0.2006
    1W        W50355  27.200   0.138   7.645 -0.3183 -0.0048  0.0745
    1W        W50356   7.833  21.074   6.952 -0.1869  0.0336 -0.2242
    1W        W50357  26.570  14.906   1.093  0.1668 -0.0780 -0.0180
    1W        W50358   9.160  15.487   7.729 -0.1812 -0.1584  0.0188
    1W        W50359  11.649   4.382   7.755 -0.2150  0.1873 -0.2593
    1W        W50360  26.789  10.013   8.196  0.3405 -0.0967 -0.1696
    1W        W50361  17.661   9.612   7.498  0.1575 -0.1654 -0.2052
    1W        W50362  16.127  29.805   1.833 -0.2061  0.1360  0.1891
    1W        W50363  17.957  13.381   0.567 -0.3088  0.0712  0.2910
    1W        W50364   2.209  29.903   2.608 -0.3176  0.2451  0.0290
    1W        W50365  29.055  27.417   1.902 -0.2015  0.3487 -0.0033
    1W        W50366  29.781  28.138   2.013 -0.1996 -0.3994  0.1653
    1W        W50367  27.778  26.814   7.608 -0.0661  0.0354  0.0461
    1W        W50368  21.570   0.922   1.921 -0.1178  0.0497 -0.2250
    1W        W50369   2.717   4.031   2.160  0.1317 -0.0044 -0.1326
    1W        W50370   4.897   2.653   1.178  0.3104  0.1048  0.2378
    1W        W50371  14.165  28.219   6.316 -0.2716 -0.0170  0.1835
    1W        W50372  20.079   9.228   8.946  0.2345  0.0580  0.0256
    1W        W50373  26.142  20.571   1.306  0.0882 -0.0736  0.0057
    1W        W50374  15.365  14.632   3.010 -0.2638 -0.1527  0.0921
    1W        W50375  11.507  19.618   2.147 -0.1108 -0.1136 -0.1177
    1W        W50376   9.988  22.564   6.463  0.1336  0.2180 -0.4245
    1W        W50377   5.089   7.326   2.885  0.2108  0.0210  0.0411
    1W        W50378  22.137  30.318   6.580  0.2709 -0.0760  0.0245
    1W        W50379  11.375   9.521   1.416 -0.0660 -0.1484  0.0411
    1W        W50380   8.440  25.653   7.433 -0.1849 -0.1453 -0.3385
    1W        W50381  20.467  19.840   0.928 -0.0501 -0.2236 -0.0261
    1W        W50382   1.797  26.758   0.600 -0.0045  0.1595  0.4506
    1W        W50383  19.676  12.366   1.680  0.3218 -0.0455  0.0448
    1W        W50384  21.976   1.492   1.329 -0.0484 -0.0934  0.1669
    1W        W50385   9.924   0.593   0.577 -0.2397  0.3165  0.2547
    1W        W50386   9.482  30.343   9.067  0.2367  0.0099  0.0887
    1W        W50387  23.986   4.116   7.918 -0.1882 -0.0051 -0.0281
    1W        W50388  18.070  17.022   7.614 -0.1597  0.0726 -0.0749
    1W        W50389  10.068  17.800   8.208 -0.0208  0.2234 -0.0187
    1W        W50390  10.898  17.968   5.771 -0.4154 -0.0174 -0.1220
    1W        W50391   6.544  12.363   8.714 -0.0633 -0.1913  0.1347
    1W        W50392   3.529   5.378   7.704 -0.0477  0.2276  0.0088
    1W        W50393  18.481  22.063   7.511  0.0437  0.1614  0.0913
    1W        W50394  24.312  24.686   1.286  0.0752 -0.0189  0.1940
    1W        W50395   5.607  21.179   1.138 -0.4402  0.0522 -0.1895
    1W        W50396  12.487  28.872   7.808  0.0173  0.1240 -0.0468
    1W        W50397  15.404  28.782   8.275 -0.2120  0.1782  0.0646
    1W        W50398  16.208  21.580   1.839 -0.2054  0.1455  0.1404
    1W        W50399   6.516  15.388   7.765  0.1787  0.3482  0.2951
    1W        W50400  23.581  25.330   2.382  0.0086  0.2062  0.1338
    1W        W50401   9.946   6.859   8.355 -0.1040 -0.1515 -0.0660
    1W        W50402  25.758   6.511   2.040  0.0308 -0.1434 -0.1554
    1W        W50403  24.159   4.804   1.267 -0.3138  0.0110 -0.1593
    1W        W50404  25.990  21.102   6.207 -0.2322  0.2144 -0.0176
    1W        W50405  10.009   5.715   2.037  0.0773  0.0348  0.4032
    1W        W50406  27.759  23.963   6.164  0.1391 -0.1531 -0.1449
    1W        W50407   1.114  18.263   1.855 -0.0388 -0.0733  0.0779
    1W        W50408  20.446  14.600   0.729 -0.0660 -0.0460 -0.1727
    1W        W50409   2.673  10.800   2.243 -0.0137  0.0474  0.1902
    1W        W50410  24.423   0.175   0.538  0.0084 -0.1105  0.1820
    1W        W50411  27.955   8.960   9.216  0.3579  0.0336  0.3814
    1W        W50412  26.574  26.341   0.642  0.0288  0.2416 -0.0238
    1W        W50413  25.718   3.412   0.748 -0.1535  0.2346 -0.2646
    1W        W50414  16.410  13.201   0.076  0.2437  0.0929 -0.3882
    1W        W50415  21.551   5.958   2.815  0.2530 -0.2396  0.1670
    1W        W50416  28.112   3.600   3.195  0.1732  0.2383  0.0353
    1W        W50417  18.439  11.770   0.222  0.2114 -0.0782 -0.1242
    1W        W50418  16.691   8.729   8.868  0.0177 -0.4896 -0.2994
    1W        W50419   4.696  20.471   8.764 -0.0117 -0.2416  0.0171
    1W        W50420  28.721   0.819   0.578 -0.1854 -0.1402  0.1564
    1W        W50421  11.903   0.954   2.518 -0.0052 -0.1108  0.1658
    1W        W50422  21.250  27.322   7.708  0.0547  0.1637 -0.0247
    1W        W50423  17.639  13.603   0.942 -0.3678  0.0057 -0.1087
    1W        W50424  15.989  14.076   2.234 -0.0432  0.0271 -0.0786
    1W        W50425   0.424  21.560   9.035  0.3500  0.3389 -0.3964
    1W        W50426   9.010   9.331   7.312 -0.0878  0.1152  0.2560
    1W        W50427   2.369   8.970   7.870 -0.0471 -0.0250  0.2278
    1W        W50428  29.541   0.418   7.180 -0.1347 -0.0574  0.2023
    1W        W50429  21.202  27.475   8.277 -0.2052 -0.0976  0.5228
    1W        W50430   1.862   7.059   2.066 -0.1554 -0.0879 -0.1740
    1W        W50431  18.225  15.407   7.820  0.0438  0.1927 -0.0243
    1W        W50432  28.498  18.525   8.198  0.0554  0.1185  0.0488
    1W        W50433  21.065   0.121   8.782 -0.0539 -0.1121 -0.0142
    1W        W50434  28.965  17.168   0.615  0.1112  0.1031 -0.0479
    1W        W50435   0.106  23.915   7.109 -0.1492 -0.1358 -0.0142
    1W        W50436  14.866  20.694   7.943  0.0358  0.0047 -0.0624
    1W        W50437  16.409  26.698   0.334 -0.0109  0.2314 -0.0354
    1W        W50438  28.552  11.913   8.081  0.2137 -0.1773 -0.0209
    1W        W50439  20.479  26.765   6.865  0.0296 -0.0922  0.1323
    1W        W50440  20.847   6.890   7.090 -0.1515  0.3968 -0.1173
    1W        W50441  15.523  22.042   2.228 -0.1521  0.0647  0.3118
    1W        W50442  21.264  14.736   0.046  0.0123  0.0151  0.0394
    1W        W50443   6.100  11.213   6.830  0.0994  0.1108 -0.2457
    1W        W50444  26.880  14.578   7.017 -0.0469  0.4309  0.0417
    1W        W50445   6.892  26.161   0.952  0.0222  0.0012  0.2272
    1W        W50446  13.251   5.695   1.392  0.2005  0.0968  0.1058
    1W        W50447  20.830   6.709   5.902  0.1214 -0.1569 -0.2745
    1W        W50448  23.376  26.268   8.916  0.0739  0.0735 -0.0547
    1W        W50449  21.522  27.060   7.275  0.0277 -0.1453  0.3636
    1W        W50450  11.189   8.416   8.984  0.0316 -0.1674  0.0918
    1W        W50451  21.007  28.344   1.811 -0.0011 -0.1651 -0.1042
    1W        W50452  19.794  23.888   0.034 -0.0964 -0.0552  0.0275
    1W        W50453  25.922   7.648   8.056 -0.0708 -0.0317  0.1264
    1W        W50454  23.045   8.311   2.511  0.0342 -0.0500  0.0180
    1W        W50455  21.849  12.775   1.641 -0.0810 -0.0485  0.0182
    1W        W50456   4.007  14.410   2.551 -0.0936  0.0075  0.3026
    1W        W50457   9.222  14.482   7.878 -0.0074  0.3285  0.0515
    1W        W50458  12.333  24.428   7.340  0.1553 -0.0710  0.1908
    1W        W50459  10.643  16.626   8.806 -0.0430 -0.1003 -0.1535
    1W        W50460  22.825  11.196   1.379  0.1839  0.0532 -0.3028
    1W        W50461  16.535  16.541   2.125 -0.1184 -0.1637 -0.0700
    1W        W50462  20.232   6.413   7.099 -0.2404 -0.3601 -0.0554
    1W        W50463  12.411  27.294   7.390 -0.0451 -0.0022  0.0956
    1W        W50464  26.550  14.878   8.108  0.0934  0.0239 -0.2265
    1W        W50465  26.314  17.232   1.403 -0.2495  0.2731  0.1552
    1W        W50466   3.823  12.982   6.687 -0.0831  0.1090  0.1902
    1W        W50467  28.971   9.788   1.750 -0.0422 -0.1902 -0.1529
    1W        W50468  12.972  22.081   0.772 -0.1292 -0.0049 -0.3939
    1W        W50469  20.491   6.306   1.269  0.1238 -0.0872  0.1335
    1W        W50470  16.826  27.072   7.801  0.0430  0.1062 -0.0401
    1W        W50471  24.372  16.817   0.344 -0.0491 -0.0056 -0.2217
    1W        W50472  10.458  28.929   7.357  0.3154 -0.1905  0.0013
    1W        W50473   8.237  24.595   7.160 -0.2732  0.2123 -0.0788
    1W        W50474  19.641  18.103   8.734  0.0684 -0.1247 -0.0287
    1W        W50475  12.754  26.383   7.601 -0.0944 -0.2233 -0.2065
    1W        W50476  10.968  12.133   0.551 -0.4229 -0.1476  0.2563
    1W        W50477  20.089   9.255   7.090 -0.1560 -0.3665  0.1259
    1W        W50478  19.253   6.356   8.031  0.1025  0.0945  0.0696
    1W        W50479   3.496  12.226   9.180 -0.0221  0.0761  0.1963
    1W        W50480  17.784  29.261   2.909  0.1735 -0.2014 -0.1497
    1W        W50481  13.664   2.077   0.452  0.0933 -0.0019  0.0526
    1W        W50482  11.976  23.491   2.899 -0.2163  0.1287  0.1556
    1W        W50483  10.357  22.717   6.672 -0.1071 -0.2221  0.1887
    1W        W50484  24.641   6.422   8.480  0.0052  0.1441 -0.0410
    1W        W50485  12.890  16.776   7.230  0.2217 -0.0887 -0.0931
    1W        W50486   9.488  19.962   7.680 -0.3522  0.0011 -0.3474
    1W        W50487  17.529  28.648   2.525  0.0112 -0.2841 -0.0294
    1W        W50488   4.822  18.485   6.755  0.0829  0.1816 -0.3721
    1W        W50489   3.735  13.144   0.897 -0.1766 -0.1895  0.0796
    1W        W50490   1.777   8.764   0.816 -0.0805  0.0856  0.0059
    1W        W50491  26.455  30.073   1.673  0.1851  0.0125  0.0778
    1W        W50492  29.172  10.676   1.546 -0.0965 -0.2101  0.4725
    1W        W50493  28.665  16.849   1.832 -0.0643  0.2525  0.2370
    1W        W50494  19.174  19.694   7.610 -0.1239  0.1897  0.1074
    1W        W50495  20.079   1.791   8.984 -0.0998  0.0367 -0.2088
    1W        W50496  20.738  11.862   7.553 -0.0028  0.2175 -0.0277
    1W        W50497  23.704   6.673   7.890  0.1173 -0.4372  0.1973
    1W        W50498   8.657  17.441   6.836  0.0483 -0.0330 -0.2943
    1W        W50499  10.813  14.721   8.864  0.1027 -0.1090 -0.0527
    1W        W50500  27.524  24.912   1.057 -0.3029  0.2043  0.0286
    1W        W50501  15.390  10.981   1.383 -0.0691 -0.1123  0.2274
    1W        W50502  24.601  11.032   1.581  0.1523 -0.0381 -0.2022
    1W        W50503  25.469  24.814   0.338 -0.2415 -0.1654 -0.0513
    1W        W50504   7.994  22.963   1.440  0.0021 -0.1519 -0.0763
    1W        W50505   9.050   9.795   1.221  0.1322 -0.1374 -0.1180
    1W        W50506  22.766   0.250   3.068 -0.1860 -0.2567  0.0823
    1W        W50507  26.142  27.583   3.343 -0.1325  0.3610 -0.0232
    1W        W50508   8.490  15.128   1.233  0.1569  0.3973  0.2076
    1W        W50509  22.244  20.510   7.457 -0.0391  0.0702 -0.2707
    1W        W50510   1.933  23.057   7.215  0.6107 -0.0923  0.0099
    1W        W50511  18.229   0.853   1.522 -0.3378  0.1919 -0.1213
    1W        W50512  24.100   4.621   8.046 -0.1111 -0.1636  0.1045
    1W        W50513   3.793  27.099   0.933 -0.1069 -0.2252 -0.2935
    1W        W50514  20.009   3.052   7.112 -0.2883 -0.1147  0.3560
    1W        W50515   7.886   5.780   1.814  0.1445 -0.2156 -0.0622
    1W        W50516  21.125  27.455   7.259 -0.1241  0.0634  0.3310
    1W        W50517   1.706   6.757   9.000 -0.1220  0.0787  0.0882
    1W        W50518  14.071  17.563   6.144  0.2288  0.1614  0.0148
    1W        W50519  10.990   2.699   6.681 -0.0311  0.0426  0.6034
    1W        W50520   9.827   8.049   7.728  0.0890 -0.1185  0.2892
    1W        W50521  25.498  10.390   7.929 -0.0457 -0.2118 -0.1324
    1W        W50522  27.125   1.500   8.484  0.3047 -0.3459 -0.2275
    1W        W50523  30.207  10.730   9.216 -0.1326 -0.1059 -0.0031
    1W        W50524   8.476   2.897   0.120 -0.0557 -0.3010  0.0535
    1W        W50525  15.190  24.848   3.171  0.0707 -0.2442  0.4502
    1W        W50526  15.173  28.175   7.514 -0.0797  0.0551  0.0855
    1W        W50527   0.815  29.002   7.600 -0.0623 -0.0372 -0.0221
    1W        W50528  15.891  26.700   0.503 -0.1780  0.1266 -0.3011
    1W        W50529  18.311  12.093   6.958 -0.1410 -0.0181  0.1282
    1W        W50530  15.372  17.314   8.074 -0.2917  0.3466  0.1512
    1W        W50531  29.361  20.402   6.889  0.0091  0.0423 -0.2170
    1W        W50532   0.701   4.626   0.042  0.4045 -0.2535  0.0346
    1W        W50533   6.874   9.199   8.108  0.2440 -0.1385  0.0866
    1W        W50534   1.489  22.416   1.191 -0.2077  0.0459  0.0509
    1W        W50535  15.390  24.150   8.795  0.1699 -0.2137  0.2689
    1W        W50536  28.803  23.973   7.162 -0.1730 -0.0182  0.0294
    1W        W50537   5.327   5.650   0.398  0.1904 -0.0186 -0.2352
    1W        W50538   4.199  14.852   0.256  0.2202 -0.1551  0.1231
    1W        W50539  23.228  25.338   8.993 -0.1690 -0.0489  0.1386
    1W        W50540  14.892   1.000   8.558 -0.0110 -0.1936  0.0922
    1W        W50541  20.887  27.898   7.411  0.0718  0.2409 -0.0872
    1W        W50542  20.834  10.448   1.677  0.1121 -0.2952 -0.2737
    1W        W50543   3.976   3.683   1.567  0.1086  0.1747 -0.2915
    1W        W50544  15.467   6.263   7.516  0.1685  0.2181 -0.0842
    1W        W50545   6.621   9.832   7.467 -0.0099  0.1494 -0.0664
    1W        W50546   8.777  17.135   7.213  0.0579 -0.1729 -0.2466
    1W        W50547  22.306   3.478   0.536  0.0518  0.0227 -0.0651
    1W        W50548  18.808  21.338   1.962 -0.0741  0.3074 -0.1763
    1W        W50549  26.855  10.790   1.878 -0.2918  0.0733  0.1037
    1W        W50550  10.975  24.996   2.691  0.0536  0.1674 -0.2173
    1W        W50551  16.717  23.642   7.876  0.3123 -0.2346  0.3108
    1W        W50552  10.122  24.195   8.102 -0.0218  0.0044 -0.0320
    1W        W50553  25.709  25.249   8.744 -0.1455  0.1877 -0.0217
    1W        W50554  14.410   6.144   1.953 -0.0594  0.4811 -0.0623
    1W        W50555  30.231  26.636   8.562  0.1762  0.0162  0.3357
    1W        W50556  27.702  15.528   6.816 -0.0087 -0.0241 -0.0201
    1W        W50557  12.410   6.909   5.976  0.0901 -0.0593 -0.1378
    1W        W50558  12.642  10.023   8.998  0.0917 -0.0927 -0.3879
    1W        W50559  28.198   1.307   7.823  0.1393  0.0587  0.1384
    1W        W50560  18.526  16.751   7.584  0.1500  0.0623 -0.0186
    1W        W50561   9.939  30.269   1.492  0.1087  0.0973 -0.1774
    1W        W50562  20.105  29.225   0.883 -0.2523  0.1077  0.2598
    1W        W50563  16.098   3.358   0.986 -0.0302  0.0935 -0.0771
    1W        W50564   0.205  10.727   1.651 -0.0517  0.2461 -0.0145
    1W        W50565  14.634  26.227   8.149  0.1160 -0.0312  0.0268
    1W        W50566  16.747  23.699   1.435 -0.0707  0.1245 -0.0705
    1W        W50567  18.536  21.594   6.891 -0.1665 -0.2871  0.2428
    1W        W50568   6.215  22.083   0.522  0.0312 -0.0295 -0.1697
    1W        W50569  21.887   4.121   2.883  0.2045 -0.0687  0.0130
    1W        W50570   3.124  22.771   8.352 -0.2487  0.0504 -0.1385
    1W        W50571  13.309   6.738   8.580  0.1620  0.2338 -0.0182
    1W        W50572  12.838   4.297   6.942  0.1808  0.2160  0.1518
    1W        W50573  28.182   9.896   2.285 -0.0627 -0.0973 -0.0739
    1W        W50574  17.667  20.990   8.609 -0.2046  0.0307  0.0207
    1W        W50575   5.618   4.984   2.737 -0.4532  0.0719  0.1039
    1W        W50576   1.434  23.831   1.782 -0.0654 -0.0941  0.4116
    1W        W50577  16.830  16.718   0.378  0.2227 -0.2682  0.1978
    1W        W50578  10.268  27.855   0.636 -0.0386 -0.0950  0.2184
    1W        W50579   9.114   0.089   3.236  0.0991 -0.3003  0.1673
    1W        W50580  18.676   3.131   1.325  0.0419  0.2068  0.0264
    1W        W50581   4.641   3.281   8.321 -0.2768  0.2908 -0.0019
    1W        W50582  17.315  18.670   8.108 -0.4674  0.1969 -0.2842
    1W        W50583  22.299  19.071   6.006 -0.1215 -0.1051  0.0099
    1W        W50584  17.460  24.178   1.544 -0.1952  0.0959 -0.1192
    1W        W50585  20.504  29.471   0.756 -0.1088  0.0218 -0.2717
    1W        W50586   8.609  21.328   7.274  0.1275 -0.2943  0.0256
    1W        W50587  18.338  27.208   8.660 -0.1498  0.0093  0.1497
    1W        W50588   2.851  15.094   8.015 -0.3441 -0.1136  0.1190
    1W        W50589   4.368  26.741   7.485 -0.0092 -0.1538 -0.0659
    1W        W50590  22.782   4.022   2.884  0.0371  0.0937 -0.2046
    1W        W50591  28.377   5.003   7.046  0.1733 -0.2504  0.1425
    1W        W50592  18.008  20.663   0.560  0.2709  0.0758 -0.0396
    1W        W50593  24.457   5.203   8.653  0.1880 -0.0273 -0.0189
    1W        W50594  12.095  16.911   6.964  0.2826 -0.0502  0.1888
    1W        W50595   2.992  10.498   0.584 -0.1428  0.3836 -0.0987
    1W        W50596  10.253   7.763   1.775  0.2226 -0.2104 -0.0246
    1W        W50597   3.303  29.950   1.547 -0.0038 -0.0327 -0.1225
    1W        W50598  10.780   1.845   9.025  0.0175  0.3693  0.1381
    1W        W50599   1.082   7.433   6.906 -0.0684  0.0693 -0.0467
    1W        W50600  21.836   6.673   8.177  0.1244 -0.0756  0.1882
    1W        W50601   6.735  21.328   8.903  0.1905  0.0210 -0.0983
    1W        W50602  14.369  12.697   1.556  0.0801 -0.1525  0.0265
    1W        W50603   4.041  11.198   7.587 -0.1878  0.1740 -0.3139
    1W        W50604  27.592  26.081   0.216  0.2125  0.3872  0.0138
    1W        W50605  23.981  10.251   6.673 -0.0171  0.2718  0.2505
    1W        W50606   2.015  23.824   1.000  0.0674  0.2660  0.2155
    1W        W50607  13.375   9.497   9.073  0.2060  0.1662 -0.1230
    1W        W50608   9.734  19.007   0.467 -0.0459  0.2295  0.1224
    1W        W50609  24.284  22.772   8.377  0.2257  0.3785  0.0837
    1W        W50610  14.661   7.572   1.342  0.1544 -0.0074  0.3944
    1W        W50611  12.102   9.940   8.926 -0.2103  0.0637 -0.2984
    1W        W50612   8.749   6.086   1.770 -0.2193 -0.3876  0.2471
    1W        W50613   0.318   5.367   2.416  0.0288  0.0326 -0.2063
    1W        W50614  16.480  22.324   6.472  0.2384 -0.3014  0.1101
    1W        W50615   8.162  28.297   7.291 -0.0255 -0.1118 -0.0687
    1W        W50616  27.812  28.528   2.156  0.0670 -0.0391  0.0195
    1W        W50617  17.274   7.601   1.216 -0.3197 -0.3396  0.0406
    1W        W50618  25.157  14.060   1.949  0.2025 -0.0521 -0.0488
    1W        W50619   0.120   1.915   7.979  0.1330  0.2433 -0.2793
    1W        W50620  17.920   5.922   7.155 -0.2008  0.0024 -0.1008
    1W        W50621  21.955   4.045   1.850 -0.1685 -0.1687  0.0247
    1W        W50622  11.557  27.411   1.279  0.1719 -0.0349  0.1682
    1W        W50623  20.954   3.685   7.201  0.1801 -0.3497 -0.1233
    1W        W50624   7.840   3.957   3.007  0.0535 -0.5222 -0.0256
    1W        W50625  23.194   3.914   1.189 -0.0593  0.0407  0.2605
    1W        W50626  19.371   5.850   8.959 -0.0278  0.2243 -0.1810
    1W        W50627  26.839  17.687   9.019  0.1389 -0.2559  0.1485
    1W        W50628   0.677   3.834   9.091  0.0679  0.0142 -0.2490
    1W        W50629   2.028  27.832   9.148  0.1362  0.1924 -0.0761
    1W        W50630  12.526   8.098   6.338  0.0258 -0.1416  0.2103
    1W        W50631  19.321   6.173   8.520 -0.0212 -0.1427 -0.1441
    1W        W50632  16.143  16.551   6.718  0.2676 -0.0854  0.2431
    1W        W50633  15.017  28.269   0.103  0.1106  0.0517  0.1198
    1W        W50634   9.630  24.166   2.275 -0.1374  0.1511  0.2979
    1W        W50635  29.537  15.360   0.208  0.3308 -0.0108  0.2114
    1W        W50636  15.356  14.535   2.517  0.3108 -0.0901 -0.0281
    1W        W50637  26.419  20.755   8.010  0.1433 -0.0865 -0.4404
    1W        W50638  26.734  29.012   0.526 -0.4117 -0.1771  0.1835
    1W        W50639  23.268   2.213   2.728 -0.0390  0.1911 -0.0067
    1W        W50640  21.791  26.869   7.642 -0.4064 -0.0177 -0.0598
    1W        W50641  28.836  10.471   6.521  0.1777  0.0142 -0.0603
    1W        W50642  24.631  12.679   0.213 -0.1175 -0.2134 -0.0874
    1W        W50643  10.769  14.351   3.205  0.0818  0.0073  0.2128
    1W        W50644  19.570  29.893   1.049  0.1082 -0.0481 -0.1107
    1W        W50645   6.927  10.055   1.600 -0.0668 -0.0001 -0.0697
    1W        W50646  10.480  18.808   1.049  0.2541 -0.6471 -0.3439
    1W        W50647   7.590   7.113   3.067 -0.1729 -0.0566  0.2343
    1W        W50648  20.166  19.582   2.112  0.0546 -0.2290  0.0181
    1W        W50649   4.050  28.135   9.090  0.0528 -0.1214 -0.0974
    1W        W50650  21.295   3.982   3.180 -0.3215  0.2119 -0.2490
    1W        W50651  19.980  24.699   1.507 -0.2954 -0.0302 -0.0343
    1W        W50652  20.559  21.338   8.093 -0.0139 -0.4151  0.0047
    1W        W50653  28.156  22.509   2.308 -0.1432  0.1511  0.0060
    1W        W50654  16.716   3.503   8.759  0.0368  0.0686  0.2463
    1W        W50655  28.594  15.097   1.675 -0.4012 -0.1722  0.2165
    1W        W50656  22.609  18.280   6.369 -0.0735  0.0336  0.0801
    1W        W50657  11.886  23.347   2.119  0.0497 -0.1282 -0.3581
    1W        W50658   1.877  26.510   7.925  0.1866  0.2449 -0.3432
    1W        W50659   3.131  28.600   0.617 -0.1403 -0.0794 -0.0569
    1W        W50660  18.085  25.606   8.136  0.0259  0.0735 -0.0636
    1W        W50661  16.097  27.975   0.087 -0.0140 -0.1113 -0.4584
    1W        W50662  28.458  27.265   1.287  0.2673  0.1862  0.2433
    1W        W50663   5.785  10.326   8.247  0.2948  0.2428 -0.0506
    1W        W50664  16.135  15.844   0.843  0.2715  0.0393 -0.2666
    1W        W50665   9.961   6.306   2.788 -0.1484 -0.5378 -0.0413
    1W        W50666  18.932  29.218   7.263 -0.0358 -0.3906  0.1627
    1W        W50667  16.764   4.497   8.632  0.1965 -0.0487 -0.0499
    1W        W50668  29.454  26.278   0.245  0.1443  0.3010  0.3096
    1W        W50669   4.404   8.615   6.568 -0.0608 -0.2382  0.0353
    1W        W50670  22.146   5.204   2.343  0.2237  0.1200  0.2005
    1W        W50671   2.625   4.488   8.549 -0.0013 -0.1629 -0.0802
    1W        W50672  26.038   7.776   1.926  0.0075 -0.0944  0.1539
    1W        W50673  27.590  15.098   9.093  0.0658  0.0354  0.0837
    1W        W50674  11.464   2.838   0.212 -0.0751 -0.1471  0.0526
    1W        W50675   8.696  14.937   9.209  0.2161  0.4246  0.1965
    1W        W50676  24.655   2.139   8.622 -0.0654 -0.2104 -0.3760
    1W        W50677   6.949  19.147   1.560 -0.0399  0.0963 -0.0715
    1W        W50678   4.896  30.199   0.203  0.4268 -0.1750  0.0340
    1W        W50679   8.366   2.037   2.278  0.0860  0.0825 -0.2084
    1W        W50680   3.783   5.187   8.096 -0.0906  0.1364  0.0147
    1W        W50681   0.119  28.800   2.196 -0.0647 -0.1093  0.0442
    1W        W50682  12.457   0.346   0.578 -0.1098 -0.0655  0.1011
    1W        W50683   3.349  21.551   9.115  0.0143  0.0123  0.2886
    1W        W50684  26.563   5.905   2.489  0.1063 -0.4446 -0.2156
    1W        W50685   4.844   2.931   2.367 -0.3697 -0.0161  0.4344
    1W        W50686  13.634  17.583   0.005 -0.0129  0.1663  0.2615
    1W        W50687   4.297  22.281   7.762 -0.1717 -0.1030 -0.2595
    1W        W50688  17.868   0.586   8.409 -0.1311 -0.0019 -0.0885
    1W        W50689   8.532  19.978   1.016  0.1317  0.0026  0.2181
    1W        W50690   9.150  11.366   1.254 -0.1379 -0.1421  0.0827
    1W        W50691  28.674  22.859   0.639  0.0209  0.0704 -0.0740
    1W        W50692  11.613   6.605   9.130  0.0029 -0.0681  0.3069
    1W        W50693   9.328   9.429   6.499 -0.1811  0.0134  0.0259
    1W        W50694   4.583   6.511   9.064 -0.3251  0.2185 -0.1741
    1W        W50695  20.683  27.316   6.964 -0.1498 -0.4682  0.0851
    1W        W50696  20.380   6.706   9.261  0.3459  0.0635  0.0037
    1W        W50697  30.243   3.360   7.486 -0.0940 -0.0024 -0.1632
    1W        W50698  17.348   1.971   8.615  0.3333  0.2668 -0.1347
    1W        W50699  23.931   5.227   0.781 -0.0145  0.0566 -0.0900
    1W        W50700  25.733  13.590   0.521 -0.3233 -0.0025 -0.1844
    1W        W50701  12.214  18.819   9.256 -0.2449  0.0435  0.4315
    1W        W50702   6.595  12.748   1.098  0.1430 -0.0363 -0.2993
    1W        W50703  19.949   7.349   2.386 -0.2659  0.1426  0.2222
    1W        W50704   0.501  18.116   1.162  0.0514  0.1537  0.0307
    1W        W50705  26.393  17.204   6.727 -0.0904 -0.0628 -0.2180
    1W        W50706  11.334  26.428   7.820  0.0688 -0.0649 -0.0214
    1W        W50707  25.429   8.835   7.187  0.0457 -0.0785  0.1640
    1W        W50708  26.723  27.682   8.560 -0.1579  0.0441 -0.2565
    1W        W50709   5.623   5.116   2.170  0.2518 -0.2981 -0.1429
    1W        W50710  22.731  10.823   6.434  0.0867 -0.1252 -0.0296
    1W        W50711  22.075  24.443   0.751  0.2983  0.1854 -0.0980
    1W        W50712   9.388  16.598   1.707 -0.3698 -0.1031  0.1208
    1W        W50713  12.527  18.183   8.411  0.0040  0.0507  0.1574
    1W        W50714   1.278  17.919   1.413  0.0304 -0.3542  0.4141
    1W        W50715  27.298   7.487   8.524 -0.1653  0.0846 -0.0832
    1W        W50716  18.892   7.656   8.307 -0.2367 -0.0987 -0.1629
    1W        W50717  15.921   7.603   8.283  0.3178  0.1298  0.0747
    1W        W50718   1.739  29.139   2.469  0.0610 -0.0777 -0.0021
    1W        W50719  23.269   1.026   1.118  0.0051  0.5047  0.1566
    1W        W50720   1.206   3.625   2.131  0.0107  0.1908  0.0703
    1W        W50721  11.689   2.441   9.065  0.0629 -0.0581  0.1304
    1W        W50722  24.457  18.322   6.867 -0.0818 -0.0627 -0.4233
    1W        W50723  15.889  11.984   1.624  0.3186 -0.2328 -0.4452
    1W        W50724  19.308  25.547   2.249  0.2475 -0.1687  0.1155
    1W        W50725   4.571  29.912   3.215  0.0970  0.0696  0.0409
    1W        W50726  12.544  25.705   7.698 -0.0293 -0.1842  0.2330
    1W        W50727   4.327  23.063   6.483 -0.0485 -0.1407 -0.0695
    1W        W50728   1.588  16.532   8.658  0.0280 -0.2125  0.2172
    1W        W50729   7.891   2.101   1.636 -0.2758 -0.1570  0.1954
    1W        W50730   7.684  24.128   0.844 -0.0518  0.2811  0.0855
    1W        W50731  12.047  17.722   6.594 -0.0285 -0.1531  0.0067
    1W        W50732   6.065  13.225   7.706  0.0273  0.1585 -0.2039
    1W        W50733   4.081  18.949   8.410 -0.1293 -0.0689 -0.0571
    1W        W50734  23.608   5.206   2.685 -0.1138  0.1808 -0.0037
    1W        W50735   3.535   7.408   8.513 -0.2019 -0.0551 -0.4511
    1W        W50736  29.298  16.874   6.226  0.2734  0.1023  0.0445
    1W        W50737   4.400  29.457   8.455  0.0366 -0.0814  0.1368
    1W        W50738  28.522   9.582   0.595 -0.0602  0.2752 -0.0826
    1W        W50739  18.785  27.439   8.728  0.0665  0.1128 -0.1252
    1W        W50740  22.778   9.721   7.006 -0.2606 -0.0499  0.0284
    1W        W50741  17.387  23.146   0.908 -0.3370 -0.1697  0.2493
    1W        W50742  11.880  29.982   7.777  0.0568 -0.1021  0.0622
    1W        W50743   5.226   0.295   8.569 -0.4759 -0.0669  0.4331
    1W        W50744  21.966  18.521   7.613  0.0468  0.2033 -0.1229
    1W        W50745  19.956  10.542   8.670  0.1411  0.0405 -0.1007
    1W        W50746   9.120   6.643   7.535  0.0101 -0.1705  0.1197
    1W        W50747  28.074   3.963   7.479 -0.0565  0.0827 -0.1527
    1W        W50748  12.163   9.997   3.231  0.1758 -0.1827  0.1066
    1W        W50749   7.795  18.972   2.422 -0.1978  0.4017 -0.1060
    1W        W50750  14.259   3.805   1.100 -0.0885 -0.1577 -0.2567
    1W        W50751   2.324  11.780   6.317  0.0844  0.0176  0.2344
    1W        W50752  26.577  15.614   0.546 -0.2757  0.0369  0.2712
    1W        W50753  27.883   0.013   8.234 -0.1194  0.2358 -0.0437
    1W        W50754   9.260  10.321   2.587 -0.1673 -0.2157  0.2004
    1W        W50755  29.316  21.150   0.362 -0.0747  0.0087  0.1490
    1W        W50756  13.991  29.479   8.573 -0.3385 -0.3491 -0.4596
    1W        W50757  28.126  27.718   7.828 -0.2441  0.0271  0.1640
    1W        W50758  27.554   8.820   0.608  0.1215 -0.0294 -0.0879
    1W        W50759  17.238  22.729   8.207 -0.0134  0.2163  0.0195
    1W        W50760  17.891   1.065   7.357 -0.1785 -0.1585  0.1615
    1W        W50761  12.325  23.568   1.907 -0.0702 -0.1172  0.2809
    1W        W50762  19.191   9.996   8.054 -0.1737 -0.1246  0.1199
    1W        W50763   8.605  19.766   5.890 -0.1493  0.1468  0.1771
    1W        W50764   8.152   8.579   9.177  0.1891 -0.0423 -0.0680
    1W        W50765  27.486  11.958   2.398  0.0090  0.0357 -0.2876
    1W        W50766  14.661  21.126   1.588  0.1393 -0.2606 -0.0771
    1W        W50767  18.440  24.721   7.558  0.1765  0.0467  0.0961
    1W        W50768   5.584  26.707   3.206 -0.2311  0.2335  0.0195
    1W        W50769  23.092  22.258   0.266  0.3104 -0.1903  0.0505
    1W        W50770  11.746   2.926   1.449 -0.1270  0.3544  0.1039
    1W        W50771   8.905  23.279   1.002 -0.1152  0.0639  0.1104
    1W        W50772   0.744  26.025   1.986 -0.0877  0.3506 -0.2475
    1W        W50773  21.234  29.811   0.193  0.1232  0.0609  0.1153
    1W        W50774   6.256  12.094   7.907  0.2220 -0.1220  0.0152
    1W        W50775  10.088  19.840   0.018  0.1736 -0.1797 -0.2125
    1W        W50776   4.499  18.639   7.184 -0.0859  0.0865 -0.1187
    1W        W50777   9.831  16.920   7.718 -0.1762  0.2116  0.3854
    1W        W50778  30.116   7.450   1.428  0.1519 -0.2630  0.2584
    1W        W50779   5.784  24.612   1.062  0.0829 -0.0354  0.1312
    1W        W50780  29.268  26.994   8.559 -0.0040  0.1146 -0.0395
    1W        W50781  22.799  22.421   1.896 -0.2786 -0.1112 -0.1226
    1W        W50782  24.461   4.114   1.850 -0.1119 -0.2022  0.1121
    1W        W50783  15.937  12.574   8.910  0.1671 -0.1030  0.0257
    1W        W50784  19.024  15.842   1.169  0.2671 -0.1955 -0.2848
    1W        W50785   3.669   7.591   1.631  0.1413 -0.1100 -0.2461
    1W        W50786  28.056  26.247   8.268 -0.0100  0.0376  0.1785
    1W        W50787  15.399  19.885   1.893 -0.0392  0.1590  0.1401
    1W        W50788  22.015  18.816   8.047  0.3069  0.0043 -0.0975
    1W        W50789   9.983   5.654   0.041 -0.0504  0.0379  0.0670
    1W        W50790   5.428  29.269   2.446  0.0557 -0.3487  0.0939
    1W        W50791  22.572  24.472   0.524  0.0441  0.1215 -0.4157
    1W        W50792  12.833   0.151   7.832  0.1919 -0.1136  0.0072
    1W        W50793  28.062  17.905   7.438 -0.2741  0.1176 -0.0145
    1W        W50794  16.934  24.857   1.315  0.0420  0.1846 -0.0840
    1W        W50795  28.399  24.421   1.298  0.0044 -0.1037  0.1092
    1W        W50796   5.586  23.722   0.912 -0.5933 -0.1094 -0.3845
    1W        W50797   2.515   2.358   7.775  0.1502  0.1400  0.0375
    1W        W50798  28.157   7.667   7.153  0.0316  0.0245  0.0742
    1W        W50799  24.942  28.964   3.578 -0.1997 -0.1619 -0.1552
    1W        W50800  24.313  16.224   0.631  0.3030 -0.0761  0.0937
    1W        W50801  15.310   8.431   0.518 -0.0247  0.2771  0.2773
    1W        W50802  21.563  15.986   8.623 -0.1880 -0.1044 -0.2217
    1W        W50803  21.298   2.079   7.894 -0.0615 -0.2191 -0.2239
    1W        W50804  14.181  15.271   7.508  0.1316 -0.2157 -0.2332
    1W        W50805   0.533  26.983   7.314  0.0504  0.1623 -0.0714
    1W        W50806   8.708  12.231   1.277  0.1305 -0.1926  0.2703
    1W        W50807   7.689  12.635   2.098 -0.2171 -0.0432  0.3649
    1W        W50808   0.115   2.003   2.322 -0.0967  0.3109  0.0329
    1W        W50809  11.873  13.609   1.228 -0.4476  0.0226  0.2153
    1W        W50810  30.219   7.964   0.841  0.0190  0.1271  0.2255
    1W        W50811  17.249  21.428   1.836  0.1771 -0.0154  0.0394
    1W        W50812  14.310  16.603   1.846 -0.3443  0.0891  0.1004
    1W        W50813   8.435  29.645   0.114  0.1733  0.1908 -0.1428
    1W        W50814  18.836  11.893   6.759  0.1220  0.0830 -0.1524
    1W        W50815  15.833  15.030   1.179  0.1473  0.1075  0.0831
    1W        W50816   7.632   1.460   1.089 -0.3061 -0.0196 -0.3227
    1W        W50817  28.038  14.341   8.622 -0.1951 -0.0767 -0.0354
    1W        W50818  22.598  21.333   7.241 -0.2513  0.2097 -0.0637
    1W        W50819  16.147  16.325   7.522 -0.1651 -0.0190  0.0142
    1W        W50820  29.480  20.072   1.165 -0.1764 -0.1849 -0.1900
    1W        W50821   3.438  19.090   0.181 -0.1808 -0.0260 -0.0683
    1W        W50822  11.988  22.602   9.187  0.2876 -0.0688 -0.1515
    1W        W50823  29.995  23.437   0.608 -0.2016  0.4008 -0.0799
    1W        W50824  28.843  27.288   2.422  0.1148 -0.0377  0.0144
    1W        W50825  18.186  13.222   0.114  0.1457 -0.1910 -0.1222
    1W        W50826  24.836  23.379   2.268 -0.2728  0.0975  0.0525
    1W        W50827  19.172  11.108   8.447  0.2938 -0.2286 -0.0929
    1W        W50828  28.161   5.611   7.099 -0.1964 -0.0586 -0.0680
    1W        W50829  10.065  28.116   2.118  0.0331  0.0607 -0.0206
    1W        W50830  21.959  20.879   0.523 -0.0900 -0.1930 -0.1245
    1W        W50831  19.309  28.928   2.871  0.0421 -0.2926  0.0980
    1W        W50832   4.057  21.655   0.274 -0.3990 -0.1031 -0.0072
    1W        W50833  20.571  23.753   8.506  0.4240 -0.1513  0.2275
    1W        W50834  23.363   6.442   7.163 -0.0297 -0.0423  0.1086
    1W        W50835   6.843  27.670   0.453  0.0514  0.2916 -0.2172
    1W        W50836  11.795  22.289   1.512 -0.2732 -0.0434  0.2716
    1W        W50837   9.065  14.814   1.786 -0.1544  0.2168 -0.1007
    1W        W50838  16.282  11.817   2.006 -0.0372 -0.1113 -0.0157
    1W        W50839   2.286  18.237   9.023  0.0107 -0.1635  0.2122
    1W        W50840   1.174  24.951   8.858 -0.0173 -0.2982  0.0765
    1W        W50841   8.017   8.444   6.999 -0.0748  0.2645 -0.1083
    1W        W50842  29.767  14.499   2.513  0.1154  0.0326 -0.0571
    1W        W50843  15.378  17.302   3.352 -0.1633  0.1934 -0.2113
    1W        W50844  29.287   3.565   2.570 -0.1937  0.2505 -0.0617
    1W        W50845  20.274  11.997   7.030 -0.0462 -0.0011  0.0230
    1W        W50846   9.366  17.039   8.978  0.0645  0.0202 -0.1646
    1W        W50847  16.069  13.533   2.672  0.1084 -0.0026  0.0322
    1W        W50848  20.371  20.129   2.057  0.0282 -0.2473  0.0589
    1W        W50849   9.362  19.508   0.405 -0.0679  0.4177  0.1483
    1W        W50850   8.542  16.254   8.141 -0.0674  0.1158  0.1371
    1W        W50851   0.522  19.755   7.480  0.0920  0.1712 -0.1075
    1W        W50852  14.398  13.323   0.386 -0.0094  0.0771  0.0655
    1W        W50853  13.661  10.273   0.122 -0.0188  0.3222  0.0127
    1W        W50854   8.805  13.247   2.138  0.0891 -0.1035  0.3981
    1W        W50855  18.427  11.289   1.928  0.3292  0.1008  0.2181
    1W        W50856  12.196  24.542   0.553 -0.0621 -0.0846  0.0606
    1W        W50857   6.053  10.730   0.204 -0.0710 -0.2736 -0.0530
    1W        W50858   9.175  14.556   7.403  0.0229  0.0981  0.0793
    1W        W50859  15.555   2.363   7.263 -0.2278 -0.0468  0.0325
    1W        W50860   2.271   7.913   1.571  0.2483  0.0051  0.1588
    1W        W50861  27.577   7.955   3.232  0.2923  0.1922 -0.2127
    1W        W50862   1.020  25.556   7.517 -0.1120  0.0287  0.1738
    1W        W50863   4.024  20.454   0.705 -0.1271 -0.0748  0.3110
    1W        W50864   7.895   0.245   1.524  0.0251  0.1023 -0.2366
    1W        W50865  22.822  30.256   0.004 -0.1394  0.1235  0.1335
    1W        W50866  10.121  19.030   6.645 -0.1839  0.0467 -0.4243
    1W        W50867  24.334  26.169   9.072 -0.0772 -0.2123 -0.0607
    1W        W50868   7.059   7.484   1.109  0.2385 -0.1969  0.1748
    1W        W50869   4.949   9.078   1.134 -0.2371  0.1293  0.2932
    1W        W50870  17.868  17.525   6.856  0.0193 -0.2002 -0.1645
    1W        W50871  28.548   0.638   3.278  0.1377 -0.3243  0.1067
    1W        W50872   8.409  25.328   0.992 -0.0027  0.0967  0.0477
    1W        W50873  15.426  11.116   0.558 -0.1246  0.0240  0.0146
    1W        W50874   4.164  14.721   1.040  0.3856  0.2137 -0.2970
    1W        W50875  26.249  10.374   6.183  0.3425  0.0816 -0.1244
    1W        W50876  27.117   2.321   7.161  0.4286 -0.1282  0.0070
    1W        W50877  24.688   4.547   2.062  0.0452 -0.3043  0.3754
    1W        W50878  10.537   3.853   2.242  0.0244  0.0941  0.3798
    1W        W50879  17.151   9.641   0.590 -0.0438  0.0161 -0.2157
    1W        W50880   2.417   1.202   1.602 -0.0971  0.1119 -0.3894
    1W        W50881  19.151  29.208   0.930 -0.0434  0.2235  0.2001
    1W        W50882   2.589  10.512   1.592  0.1641 -0.0241  0.0194
    1W        W50883  22.166   3.135   1.961 -0.0177  0.1298  0.0353
    1W        W50884   7.109  28.608   2.611  0.4240  0.0813 -0.0952
    1W        W50885   3.219  26.906   2.959 -0.1780  0.3797  0.1486
    1W        W50886  17.167  22.690   8.753  0.1338 -0.1557 -0.1816
    1W        W50887  26.026   2.993   0.827  0.0188  0.0042 -0.2214
    1W        W50888  19.147  14.844   0.444  0.0305 -0.0118  0.0423
    1W        W50889  23.141   7.543   7.791  0.1377  0.0214 -0.1521
    1W        W50890   9.226  29.811   0.624  0.0240 -0.2425  0.2481
    1W        W50891  18.285  23.446   0.602 -0.1523  0.0617  0.0639
    1W        W50892  20.608  11.044   1.161  0.4312  0.0096  0.0164
    1W        W50893   0.656  10.019   0.242 -0.0875 -0.4349  0.2548
    1W        W50894  28.641   5.558   2.668  0.0842  0.4312  0.3323
    1W        W50895  17.336  18.198   0.103  0.2263  0.1540  0.2729
    1W        W50896  12.235  11.146   2.018 -0.1591  0.1781 -0.1131
    1W        W50897   1.046  26.714   7.331 -0.0812  0.0153 -0.0026
    1W        W50898   0.603  15.748   7.877  0.2652 -0.1162  0.0452
    1W        W50899  13.829   9.614   6.743 -0.1015 -0.2235  0.4953
    1W        W50900  14.787  29.321   7.102  0.3876 -0.2196 -0.0062
    1W        W50901  22.361  15.785   8.380  0.0369 -0.0824 -0.0127
    1W        W50902   0.367  13.227   7.325 -0.1042 -0.0365  0.0841
    1W        W50903   7.385   7.472   0.767 -0.1131  0.0230  0.0579
    1W        W50904   2.666  20.270   0.984  0.1526 -0.1563 -0.0913
    1W        W50905   0.734  29.145   8.623  0.0281  0.0237 -0.1640
    1W        W50906  26.292  14.783   7.718 -0.0206  0.4664 -0.1945
    1W        W50907   2.900  18.184   7.243 -0.0646 -0.1210  0.1394
    1W        W50908  12.448  29.201   6.619 -0.0197 -0.0018  0.0223
    1W        W50909  29.471   0.279   3.326  0.1575 -0.1951  0.2499
    1W        W50910  13.593  14.605   9.219  0.0945 -0.0827 -0.0160
    1W        W50911  22.082  28.083   8.041  0.0538 -0.0506  0.0323
    1W        W50912  22.353  12.864   0.665 -0.0987 -0.1739 -0.2259
    1W        W50913   8.304  14.734   0.470  0.0052 -0.2606  0.2633
    1W        W50914  10.580   0.485   0.227  0.0769 -0.4933  0.0438
    1W        W50915  19.210   0.569   0.995  0.1396 -0.1408 -0.2722
    1W        W50916   7.488  13.553   1.468 -0.0707 -0.0696  0.1596
    1W        W50917  13.027  26.044   0.158 -0.0755  0.0683  0.2740
    1W        W50918   5.147  20.497   7.949  0.2993 -0.0750  0.0527
    1W        W50919   6.180   7.919   2.545  0.3027 -0.0834  0.0317
    1W        W50920   0.673  27.748   3.877  0.0765  0.1912 -0.0058
    1W        W50921  24.579  30.068   6.708 -0.1911 -0.1122 -0.0059
    1W        W50922  20.272   5.691   2.195 -0.0846 -0.0115  0.0401
    1W        W50923  15.630  18.216   0.254 -0.0440  0.1337  0.1216
    1W        W50924   5.806   7.869   7.240  0.3020 -0.0000  0.1141
    1W        W50925  10.072  17.219   8.057  0.1093  0.1463 -0.3833
    1W        W50926   9.949   7.464   1.404 -0.1928 -0.1257  0.1294
    1W        W50927   6.253  15.123   7.013 -0.0836 -0.2537 -0.0306
    1W        W50928   5.528  10.581   0.260  0.2486 -0.0955 -0.1886
    1W        W50929  16.104  22.691   6.519 -0.0735  0.0649 -0.2080
    1W        W50930  29.898   7.752   7.369  0.3230  0.3190  0.1917
    1W        W50931  26.834  15.404   7.993  0.1060 -0.2018 -0.0565
    1W        W50932  20.842   1.835   1.846 -0.0399  0.1494 -0.0885
    1W        W50933  17.925  25.113   0.778  0.3758 -0.0321 -0.1587
    1W        W50934  18.215  21.625   8.119 -0.2849 -0.0530  0.2650
    1W        W50935  17.288  26.745   1.570 -0.2059 -0.0996  0.1764
    1W        W50936   9.405  15.021   2.697 -0.0098 -0.0517  0.1286
    1W        W50937  12.732  29.648   6.437  0.1875  0.0686 -0.0417
    1W        W50938  11.848   2.558   0.999  0.0150 -0.0326  0.0986
    1W        W50939   8.718  18.659   0.625  0.3392 -0.0614 -0.1941
    1W        W50940   7.893   4.926   1.421 -0.0602  0.0202  0.4615
    1W        W50941   0.899  12.250   1.216  0.0254  0.1055  0.2204
    1W        W50942  25.418  30.067   0.836  0.0222 -0.1027  0.0603
    1W        W50943   9.960  25.000   7.629 -0.0688 -0.0149  0.1252
    1W        W50944  18.427  10.256   1.469 -0.1831  0.0273  0.3517
    1W        W50945  20.330  29.451   6.824  0.1521 -0.0740  0.0916
    1W        W50946   7.026   4.452   1.954  0.2303 -0.0178  0.1118
    1W        W50947  29.886  29.900   3.653  0.0198  0.4232 -0.2291
    1W        W50948  26.750  28.747   0.141 -0.6591  0.0988 -0.0971
    1W        W50949  16.928  11.599   2.119  0.0082  0.3017  0.1909
    1W        W50950  10.248  23.627   0.165  0.2254  0.1366  0.0072
    1W        W50951   5.716   8.799   9.227 -0.0501  0.0963 -0.2188
    1W        W50952  14.452  22.546   8.565  0.0684 -0.0315 -0.2025
    1W        W50953  14.312  22.605   0.230  0.0232 -0.0891  0.0095
    1W        W50954  22.439   8.769   8.081  0.1573  0.3871 -0.3885
    1W        W50955   6.300  27.181   1.440  0.0028 -0.0870  0.0015
    1W        W50956   6.950  12.024   2.367  0.2089 -0.2010  0.0336
    1W        W50957   1.394  28.006   8.364  0.0902  0.2346  0.3026
    1W        W50958  23.694   4.099   3.844 -0.1478 -0.1768 -0.1852
    1W        W50959  28.103  27.301   8.271 -0.0899  0.0265  0.0344
    1W        W50960  17.557   3.933   7.086  0.1123 -0.1206 -0.1768
    1W        W50961   8.338  28.829   9.262  0.1500  0.1102  0.0606
    1W        W50962   3.031   8.898   7.171  0.0483  0.2966 -0.0391
    1W        W50963  30.299   6.875   2.782  0.0119  0.3349  0.2231
    1W        W50964   9.213  18.631   1.438 -0.1576 -0.1889  0.1931
    1W        W50965  13.375  26.429   8.743  0.0806 -0.3093  0.2010
    1W        W50966  22.329  29.116   8.461  0.0688  0.0218 -0.0021
    1W        W50967  25.298  18.825   1.018 -0.4087 -0.2409  0.2113
    1W        W50968  14.292   5.815   6.346 -0.0141 -0.1356  0.2211
    1W        W50969  10.482  20.711   6.994 -0.1974 -0.2477  0.2213
    1W        W50970  28.950   7.744   7.540 -0.3226  0.0103 -0.2688
    1W        W50971   9.304  15.644   2.135  0.0645 -0.0064 -0.0773
    1W        W50972  23.877  16.633   8.370 -0.0699 -0.0060  0.2658
    1W        W50973  18.345   4.092   8.451 -0.0364 -0.4384 -0.0239
    1W        W50974  13.804  22.345   1.505  0.0356 -0.0460  0.2914
    1W        W50975  16.265   2.102   8.143 -0.0122  0.5090 -0.1587
    1W        W50976   1.704   9.029   6.951  0.1751  0.0843  0.0509
    1W        W50977  11.256  20.263   6.413  0.2180  0.1517  0.3109
    1W        W50978  20.477   2.844   6.795 -0.2269 -0.1215 -0.1930
    1W        W50979  14.635  20.599   0.808  0.0300  0.0263  0.2914
    1W        W50980  28.710   2.445   1.679  0.1097 -0.1979 -0.0467
    1W        W50981  27.401  30.284   3.654  0.0510 -0.0279  0.1385
    1W        W50982   3.016  26.641   1.863  0.2274  0.0141  0.1054
    1W        W50983  22.828   0.852   0.667  0.0652 -0.1098 -0.2008
    1W        W50984  18.770   9.874   1.970 -0.0732 -0.2685 -0.0364
    1W        W50985   4.579  14.831   0.664 -0.0781  0.2923 -0.1380
    1W        W50986  20.954  17.902   7.960 -0.0977  0.0432 -0.0852
    1W        W50987   6.477   4.388   7.533  0.0638  0.2100  0.0181
    1W        W50988  21.287  10.563   8.066  0.0126 -0.3309  0.0391
    1W        W50989  13.065  18.106   1.349 -0.2099  0.3042  0.1553
    1W        W50990  27.624  23.439   2.611  0.1486 -0.0583 -0.2541
    1W        W50991  12.336  25.642   1.905  0.1122  0.1469  0.5776
    1W        W50992   7.657  11.133   0.827 -0.2249 -0.1332 -0.3332
    1W        W50993  25.055  18.123   8.047 -0.3910 -0.0872  0.1532
    1W        W50994  18.817  26.119   5.933  0.0539  0.0011  0.2673
    1W        W50995  14.464  27.752   1.899 -0.0116 -0.0196  0.1000
    1W        W50996  23.053  14.411   6.011  0.0263  0.0791 -0.2797
    1W        W50997  21.772   0.652   2.365  0.1927 -0.0736 -0.2925
    1W        W50998  28.340   3.109   0.248  0.0074  0.0435  0.1935
    1W        W50999  24.513   0.582   0.242 -0.0479  0.1970 -0.0813
    1W        W51000   5.356   2.415   1.036 -0.0392  0.1801 -0.1077
    1W        W51001  25.512   4.091   2.115  0.1992  0.5069 -0.2254
    1W        W51002   0.640   7.111   7.024  0.0444 -0.2250  0.1522
    1W        W51003  14.115  26.114   7.429  0.0624  0.1215  0.3765
    1W        W51004   4.264  30.057   8.434 -0.3054  0.0487 -0.0511
    1W        W51005   5.950   3.001   0.948  0.2972 -0.0396 -0.0155
    1W        W51006  10.014  14.944   2.082  0.3187  0.0335  0.2259
    1W        W51007   9.616   4.606   7.078 -0.1309 -0.0507  0.0430
    1W        W51008  22.953  13.198   0.077 -0.2824 -0.1564 -0.1947
    1W        W51009  25.673  23.918   2.077  0.0963 -0.1326  0.3101
    1W        W51010  18.341  17.381   8.748 -0.0436 -0.0886  0.0983
    1W        W51011   2.218   4.090   6.768  0.0104 -0.2247  0.2594
    1W        W51012   9.619   7.128   1.207 -0.0582 -0.0017  0.0469
    1W        W51013   0.976   4.607   1.465 -0.1111 -0.1740 -0.1017
    1W        W51014   5.582  19.908   8.773  0.0812 -0.0991  0.1697
    1W        W51015   7.161  20.383   0.709  0.0884 -0.0575 -0.1119
    1W        W51016  22.943   0.847   8.964  0.1197  0.0800  0.0627
    1W        W51017  15.480  22.662   7.988 -0.0705  0.0703  0.2768
    1W        W51018  26.981  24.610   6.286 -0.1146 -0.0248  0.3633
    1W        W51019  26.615  21.355   0.522  0.2112 -0.1746  0.1244
    1W        W51020   0.868  15.916   8.602  0.1579 -0.1916  0.2135
    1W        W51021   4.770  24.746   1.154  0.2792 -0.1590 -0.0696
    1W        W51022   2.938  14.586   8.776 -0.1195  0.2355 -0.0643
    1W        W51023  12.461  21.759   0.231 -0.0594 -0.2035  0.0815
    1W        W51024  26.240  25.035   7.528  0.1370 -0.0365 -0.1289
    1W        W51025  15.529  20.338   0.250 -0.1780  0.0465 -0.0687
    1W        W51026   5.651  27.519   0.854  0.1563  0.1671  0.0731
    1W        W51027  18.705  21.096   6.668 -0.1156  0.0426 -0.0872
    1W        W51028  12.918   0.585   6.911 -0.1914 -0.1070 -0.0120
    1W        W51029   4.229  28.500   1.910 -0.0854  0.5578  0.3262
    1W        W51030  30.035  12.091   0.657 -0.2111 -0.1746  0.1201
    1W        W51031  22.615  23.105   8.810 -0.0749 -0.1200  0.1736
    1W        W51032  16.955   1.487   5.950 -0.3627 -0.2067 -0.2328
    1W        W51033  27.329   5.737   1.438 -0.0832 -0.3946  0.0348
    1W        W51034  12.901  26.770   3.439  0.2186  0.0867  0.0803
    1W        W51035   3.672   6.680   7.240 -0.0400  0.1363  0.0391
    1W        W51036  11.846  11.992   6.851  0.1392  0.0293 -0.3125
    1W        W51037  13.560  21.394   6.298 -0.2497 -0.0636 -0.2503
    1W        W51038  11.058  22.997   5.587  0.2196 -0.0943  0.3602
    1W        W51039  22.519   7.510   2.418 -0.2337  0.0379 -0.2652
    1W        W51040  18.519  22.541   7.286 -0.0801 -0.1263  0.5056
    1W        W51041  12.576   5.327   8.798 -0.1592  0.2788 -0.1498
    1W        W51042  19.721   0.697   6.512 -0.1010  0.1706 -0.1491
    1W        W51043   6.428   7.066   7.784 -0.1754 -0.2648  0.1161
    1W        W51044  27.574  14.488   9.015  0.0060 -0.0677  0.1312
    1W        W51045  14.391  25.320   9.162  0.1662 -0.0188 -0.1009
    1W        W51046  29.268  16.492   6.776  0.4126  0.1643  0.2026
    1W        W51047  23.656  20.554   6.998 -0.0277  0.1097  0.1464
    1W        W51048  27.045  21.160   7.593  0.2366 -0.2230  0.0903
    1W        W51049  29.648   5.278   7.434  0.0366 -0.2721 -0.2358
    1W        W51050  20.908  15.572   7.917 -0.0516 -0.0692  0.2337
    1W        W51051   6.656  27.133   8.555  0.1369  0.0365  0.4582
    1W        W51052  14.794  27.914   0.491  0.1707  0.1155 -0.0696
    1W        W51053  15.300  16.052   1.126 -0.1324  0.2654  0.0227
    1W        W51054   3.932  19.006   1.790 -0.0863  0.0277 -0.2827
    1W        W51055   9.757  17.908   6.709 -0.1363  0.3185  0.0234
    1W        W51056   1.531  20.849   7.405  0.1321  0.1850  0.1838
    1W        W51057  30.186   5.752   7.455 -0.3487 -0.2397  0.0971
    1W        W51058   1.993  27.035   1.079  0.1084  0.0546 -0.2697
    1W        W51059   6.944   2.481   8.159  0.0641  0.1393 -0.0315
    1W        W51060   1.730   7.206   9.221 -0.2332 -0.0175  0.1342
    1W        W51061  19.701  17.742   8.329 -0.0231 -0.1400 -0.1655
    1W        W51062  21.919  20.715   6.185  0.2290  0.2911  0.1032
    1W        W51063  12.702  26.831   0.698  0.0350 -0.2492 -0.1268
    1W        W51064  10.829   2.268   7.976 -0.4658  0.0971 -0.1479
    1W        W51065  10.558  21.580   8.501 -0.0472  0.0013  0.0543
    1W        W51066  19.693   5.555   9.179 -0.2600  0.0626  0.1966
    1W        W51067   9.896  20.264   0.204  0.3396  0.2431  0.0755
    1W        W51068  17.814  25.145   6.444  0.0145 -0.1179  0.0322
    1W        W51069  27.876  23.604   8.020  0.3072 -0.1690 -0.0552
    1W        W51070  12.641  16.831   1.996 -0.1661  0.0656 -0.3816
    1W        W51071  12.746  14.333   2.799 -0.1579  0.2840 -0.2243
    1W        W51072   0.850   6.520   6.969 -0.2846  0.1031  0.0039
    1W        W51073   8.422  21.530   8.194 -0.1770 -0.0266 -0.0516
    1W        W51074  18.326  19.887   0.321 -0.3729 -0.1075  0.0918
    1W        W51075   6.666  19.472   7.295  0.4372 -0.1555  0.2415
    1W        W51076  29.465  25.603   6.935  0.0703 -0.2132 -0.1833
    1W        W51077  12.987  19.437   1.483  0.1481  0.0348 -0.0211
    1W        W51078  11.895  19.659   7.584 -0.3156  0.0262  0.2228
    1W        W51079   6.981  14.185   7.229  0.0466 -0.3855  0.1109
    1W        W51080  20.079  21.555   8.627  0.1774 -0.1391 -0.0365
    1W        W51081  22.036  24.708   2.086 -0.0729 -0.1664  0.2863
    1W        W51082  20.196  28.886   0.223  0.0377  0.2156  0.2487
    1W        W51083   5.210  27.584   9.232  0.0793  0.0622 -0.1945
    1W        W51084   7.086  25.728   0.849  0.1042 -0.2050  0.0060
    1W        W51085  10.212  19.160   8.697  0.1977 -0.0089 -0.0424
    1W        W51086   6.369  24.218   9.077 -0.0352 -0.0203  0.0375
    1W        W51087  21.196   4.036   9.036  0.0034 -0.1476  0.2368
    1W        W51088  21.866  13.599   5.629  0.2105 -0.2477 -0.0169
    1W        W51089   0.289   8.375   1.258  0.0374 -0.1071 -0.0009
    1W        W51090  14.409  16.189   2.176 -0.0071 -0.2550  0.2067
    1W        W51091  28.901   2.718   0.765  0.0363  0.0141  0.1919
    1W        W51092  25.200   1.778   6.779 -0.0583 -0.2185  0.0547
    1W        W51093  15.869  30.256   8.570  0.1759 -0.1061 -0.1935
    1W        W51094  23.260  12.117   6.386  0.2384  0.2171 -0.0362
    1W        W51095  21.798   4.768   0.937 -0.2805 -0.1176 -0.1014
    1W        W51096  27.797  13.584   1.396 -0.3612  0.1230  0.0904
    1W        W51097  28.508  26.721   6.734  0.0675  0.1005 -0.0399
    1W        W51098   2.040  28.473   2.486  0.1083 -0.1099  0.2207
    1W        W51099  21.858  25.100   0.777 -0.0583  0.1143 -0.1926
    1W        W51100  28.275  20.834   0.892  0.1412  0.2233 -0.2589
    1W        W51101   0.871  23.175   0.284 -0.0873  0.1070  0.1185
    1W        W51102  14.968  12.577   2.436  0.1787  0.1468  0.1219
    1W        W51103   4.467   9.423   2.824 -0.0365 -0.2114 -0.0959
    1W        W51104  22.066  15.557   6.330  0.0889 -0.2304 -0.1289
    1W        W51105   7.036  28.295   7.380 -0.2776 -0.3609  0.0183
    1W        W51106   3.475   2.901   1.393 -0.1152  0.0292 -0.1950
    1W        W51107   5.316   0.918   8.012  0.1736 -0.2493  0.3398
    1W        W51108  15.372   6.546   1.981 -0.2201 -0.1160 -0.0012
    1W        W51109  24.838  27.858   7.500 -0.0380 -0.2915  0.1038
    1W        W51110   5.710   3.471   6.294 -0.2586  0.0098 -0.0809
    1W        W51111  22.906  26.166   3.036 -0.3561 -0.1012  0.0459
    1W        W51112  25.762  27.777   8.479  0.1369  0.1630 -0.1317
    1W        W51113  19.493  28.603   0.867  0.4055 -0.2980  0.0813
    1W        W51114  27.558   5.678   1.898 -0.3686 -0.2246  0.0528
    1W        W51115  23.167   3.024   8.966 -0.2140 -0.0126  0.0973
    1W        W51116  23.273   9.291   6.934  0.2907 -0.0691  0.2912
    1W        W51117  23.943   9.196   8.658 -0.2581  0.1068  0.0051
    1W        W51118   4.984  18.203   0.183 -0.0810 -0.1013  0.0732
    1W        W51119  13.864   7.238   1.064 -0.2525 -0.1349 -0.1341
    1W        W51120  17.015  28.563   2.775  0.3712  0.3209  0.4972
    1W        W51121  28.699   5.599   3.592  0.0507 -0.1463 -0.0658
    1W        W51122  16.532   0.258   1.602  0.3322  0.2657 -0.1251
    1W        W51123  30.011  26.895   0.872 -0.0645 -0.1213  0.0613
    1W        W51124   6.758  16.065   1.222  0.1014 -0.0993  0.1968
    1W        W51125  24.413  17.646   6.558 -0.2858 -0.0251 -0.0656
    1W        W51126  23.297  19.011   7.931  0.1195 -0.4786  0.1237
    1W        W51127  17.770   2.026   9.268 -0.0701  0.1019 -0.2932
    1W        W51128   5.085  16.113   6.132  0.1045 -0.0500  0.1496
    1W        W51129  29.298   3.103   0.577  0.4173  0.0065 -0.0547
    1W        W51130   6.929  14.513   6.877  0.3415  0.2312 -0.1597
    1W        W51131   1.578  15.709   0.282  0.2676 -0.3009 -0.0961
    1W        W51132  21.098   3.606   0.996  0.1678 -0.2209 -0.2265
    1W        W51133   5.210  22.427   1.631  0.2157 -0.1287 -0.0649
    1W        W51134  23.860   5.780   1.927  0.2405  0.1019  0.1293
    1W        W51135  27.388   6.210   1.827  0.1584  0.0036 -0.0009
    1W        W51136  26.390   5.681   9.042 -0.0511  0.0375 -0.2388
    1W        W51137  30.319  26.990   2.426  0.5088 -0.1474 -0.2550
    1W        W51138  21.340   0.188   0.051 -0.0193  0.2025 -0.2530
    1W        W51139   5.853  19.492   9.067  0.1719 -0.0819 -0.0706
    1W        W51140  12.603   0.717   0.983  0.0264 -0.3325 -0.0897
    1W        W51141  20.025  28.350   2.302 -0.0768 -0.2404 -0.2045
    1W        W51142  11.951  26.685   0.087 -0.1693 -0.0156  0.2473
    1W        W51143   7.935  25.602   0.901  0.0140  0.0123  0.2157
    1W        W51144   0.894   8.132   8.349  0.1536  0.1989  0.2124
    1W        W51145  19.523  17.612   0.843  0.1103 -0.1699 -0.1620
    1W        W51146   6.554   8.489   8.466  0.1351 -0.0930  0.3099
    1W        W51147  25.947   5.385   1.826  0.0149 -0.0532 -0.1516
    1W        W51148  25.450  29.694   3.775 -0.1050  0.3514 -0.0899
    1W        W51149  25.051  20.814   1.989 -0.2567 -0.2182 -0.1387
    1W        W51150   9.840  11.954   0.840 -0.2814 -0.2333 -0.0649
    1W        W51151  21.155  19.104   6.665 -0.0252 -0.0183 -0.0646
    1W        W51152  21.961   2.014   0.828 -0.0096 -0.0086 -0.1234
    1W        W51153   4.290  29.844   0.829 -0.0558 -0.0867 -0.1527
    1W        W51154   4.487  21.968   7.329  0.1912  0.1120 -0.0685
    1W        W51155  26.927   6.837   2.447 -0.0698 -0.0749  0.2323
    1W        W51156  12.569   9.400   0.952  0.0786 -0.1160  0.0117
    1W        W51157  17.203  30.287   1.877 -0.1207  0.1888 -0.1068
    1W        W51158  23.446   7.364   7.287 -0.2162 -0.0162 -0.0208
    1W        W51159  20.701  12.876   7.375  0.3158 -0.0758  0.1988
    1W        W51160   6.267   4.104   2.240 -0.1277 -0.2237 -0.1763
    1W        W51161  15.790  24.919   8.599 -0.0641  0.0441 -0.0761
    1W        W51162  15.376  16.640   2.330  0.4441  0.0893 -0.0944
    1W        W51163  15.252  11.371   4.115 -0.0399  0.2514 -0.0442
    1W        W51164   7.156  22.428   0.106 -0.3245  0.0739  0.0770
    1W        W51165   9.367  27.667   7.051  0.1933 -0.1871  0.1054
    1W        W51166  28.740  24.745   1.367 -0.1380  0.0532  0.1643
    1W        W51167   1.051  15.781   9.158 -0.1535  0.1458 -0.2028
    1W        W51168   4.277  27.478   2.033 -0.1720  0.1169  0.1089
    1W        W51169   7.555  26.648   1.128 -0.2598  0.2321 -0.1465
    1W        W51170  25.527   6.647   0.461  0.0344 -0.5132  0.0145
    1W        W51171  28.518  27.773   8.406 -0.2452  0.1938 -0.3139
    1W        W51172   9.734   6.753   1.820 -0.0362  0.3140 -0.1136
    1W        W51173   2.647  28.050   0.559  0.0209 -0.1311  0.0737
    1W        W51174  25.089  18.066   1.478 -0.3020 -0.1686  0.0400
    1W        W51175  11.475   2.900   6.709  0.0455  0.2153 -0.0259
    1W        W51176  28.481  11.602   2.301 -0.1676 -0.3719 -0.1137
    1W        W51177   5.988   7.405   0.362  0.0887  0.2080  0.0461
    1W        W51178  25.604  24.931   0.817 -0.2200 -0.2272  0.2174
    1W        W51179   7.576   2.336   1.017  0.3583 -0.0393  0.0407
    1W        W51180  29.521  13.624   8.946  0.0257  0.0440 -0.1787
    1W        W51181  14.749  28.436   1.282 -0.2164 -0.1574  0.0405
    1W        W51182  15.550  11.445   7.928  0.0390  0.2456  0.5465
    1W        W51183  15.829  26.715   8.739 -0.0796 -0.2552  0.0916
    1W        W51184  21.561   1.970   2.919 -0.0793  0.1171  0.2625
    1W        W51185  23.772  18.426   1.132  0.2107  0.2135  0.1057
    1W        W51186  12.072  16.963   7.470 -0.2616 -0.1597  0.0764
    1W        W51187  29.630   4.824   2.185 -0.1943 -0.1131  0.2206
    1W        W51188  29.603  20.944   8.883 -0.1056 -0.0963 -0.1917
    1W        W51189   1.879  12.407   1.397 -0.0556 -0.2048 -0.0978
    1W        W51190  28.576  25.125   0.492  0.1355  0.0322  0.1948
    1W        W51191  10.107  18.963   1.395  0.0626  0.0750  0.4172
    1W        W51192  20.352  16.096   1.709 -0.3183  0.0460 -0.3427
    1W        W51193  24.533  15.217   1.970 -0.1453  0.2895 -0.0017
    1W        W51194  27.838  10.445   1.624  0.2051 -0.2855  0.0054
    1W        W51195   2.038   0.026   1.836 -0.0939  0.2411 -0.1146
    1W        W51196   4.964  19.127   9.100 -0.2313 -0.0642 -0.0188
    1W        W51197  14.813  18.894   7.728  0.1361  0.0980 -0.2073
    1W        W51198  12.698  25.369   1.506 -0.4059  0.2143  0.0745
    1W        W51199   1.047  24.784   8.316  0.2859  0.2461  0.0269
    1W        W51200  10.262  21.428   8.126 -0.0270  0.0932  0.0008
    1W        W51201   8.352  16.990   7.612 -0.1607 -0.0871  0.0459
    1W        W51202  22.517  23.774   7.892  0.2329  0.1384 -0.2993
    1W        W51203  19.496  25.876   7.233 -0.1145 -0.1209 -0.0740
    1W        W51204   1.377  14.279   1.456 -0.0798  0.0102  0.3487
    1W        W51205   1.719  15.482   6.176 -0.0020 -0.0044  0.5520
    1W        W51206   9.202   7.144   2.704  0.2877  0.0024 -0.0022
    1W        W51207   0.499  17.863   8.189  0.2285  0.1479 -0.1296
    1W        W51208  10.522  17.996   7.894 -0.1245  0.0774 -0.1415
    1W        W51209  22.444  17.715   8.973 -0.3109  0.0405  0.0816
    1W        W51210   2.765  29.995   7.369  0.2057 -0.2127 -0.2071
    1W        W51211   5.542  14.735   8.113 -0.0287  0.0896 -0.1010
    1W        W51212   7.656  11.487   1.732 -0.1030 -0.1586 -0.0871
    1W        W51213   8.548   0.643   0.273 -0.0708 -0.1613 -0.2170
    1W        W51214  17.618   7.357   5.941  0.1068  0.2933 -0.0042
    1W        W51215  13.685  13.635   3.336 -0.0966  0.1452 -0.2040
    1W        W51216   5.227   4.961   1.861 -0.1613  0.0351 -0.0525
    1W        W51217  15.309  16.208   3.202  0.1605 -0.1279  0.3863
    1W        W51218   3.921  12.770   0.124 -0.2742  0.1513  0.0269
    1W        W51219  15.538  25.681   7.972  0.0381  0.2265 -0.1845
    1W        W51220  14.079   0.626   6.191  0.1364  0.2211 -0.0740
    1W        W51221   0.039   3.351   7.951  0.0502  0.4560 -0.0479
    1W        W51222   1.019  11.924   1.975 -0.2807 -0.0263 -0.3247
    1W        W51223  30.173   5.230   0.790 -0.1733  0.1018 -0.2324
    1W        W51224   7.329   1.927   8.569 -0.0581  0.3105 -0.0346
    1W        W51225   7.361   9.261   2.243  0.1029  0.2099 -0.1117
    1W        W51226  16.099  15.624   1.901 -0.1043  0.4725 -0.0541
    1W        W51227  26.826  23.258   8.317  0.1847  0.0516  0.2522
    1W        W51228   6.431  28.056   8.609  0.0511  0.2334 -0.0762
    1W        W51229  11.000  16.354   8.497 -0.1382 -0.1489  0.2017
    1W        W51230   6.188   4.604   0.249 -0.1096  0.2123  0.3147
    1W        W51231  29.948  21.138   1.408 -0.1204  0.3591 -0.2185
    1W        W51232  28.145  14.091   0.345  0.0589 -0.1346 -0.2734
    1W        W51233  23.526  21.049   1.231  0.0488  0.0106  0.3619
    1W        W51234  25.598  19.674   0.905 -0.2480 -0.0360  0.1628
    1W        W51235  13.542  10.843   2.574 -0.2341 -0.0389 -0.0169
    1W        W51236  27.215   7.660   3.017  0.2592 -0.1037  0.0665
    1W        W51237  14.898  30.270   2.142 -0.4830 -0.1031 -0.2250
    1W        W51238   0.416  16.125   8.681  0.0664  0.3091 -0.0125
    1W        W51239   2.855  16.204   9.109  0.0456  0.3807 -0.0405
    1W        W51240  22.462  11.585   0.644  0.0019  0.0240 -0.1253
    1W        W51241   0.922   5.812   3.235 -0.1115  0.1245 -0.1018
    1W        W51242   9.427   2.991   0.473  0.3333 -0.1137  0.0552
    1W        W51243  28.097  29.413   3.212  0.2465 -0.2314  0.3091
    1W        W51244  17.184  18.024   1.833 -0.0548 -0.0026 -0.0638
    1W        W51245  22.274  24.749   1.182 -0.0306 -0.1740  0.1266
    1W        W51246   2.027  15.096   8.036  0.0524 -0.1257  0.3365
    1W        W51247   2.248  13.944   8.827  0.2492  0.2009 -0.4229
    1W        W51248  13.325  17.963   6.001 -0.0019  0.2450  0.1286
    1W        W51249   2.099  30.123   0.818  0.1951  0.2104  0.0654
    1W        W51250  13.403  29.315   1.302  0.0530  0.0907  0.2314
    1W        W51251  27.664  13.228   1.088  0.1155  0.0824  0.3212
    1W        W51252  19.565  22.422   0.138 -0.2739  0.2380 -0.1838
    1W        W51253   0.287   3.518   1.872 -0.3302  0.0650 -0.2538
    1W        W51254  19.496   7.128   0.504  0.0677  0.1902  0.2914
    1W        W51255  15.373  13.682   8.844 -0.0895  0.1143 -0.1466
    1W        W51256  25.030   3.107   1.050  0.0137  0.1234  0.2286
    1W        W51257  27.452  27.968   0.543  0.1541 -0.2659 -0.1910
    1W        W51258  27.748  26.540   8.612  0.0102 -0.0521  0.1025
    1W        W51259  10.815   1.160   7.077  0.0039 -0.1566  0.2727
    1W        W51260  17.197  23.449   7.860 -0.2501  0.2112 -0.0608
    1W        W51261   7.542   8.986   7.750  0.1606  0.3377 -0.0712
    1W        W51262  21.515  10.601   5.412  0.2228  0.0260  0.1723
    1W        W51263  29.312   0.483   2.548 -0.0816  0.0855 -0.0340
    1W        W51264  23.969   1.144   1.915 -0.0169 -0.3207  0.1186
    1W        W51265  11.027  10.633   9.116 -0.0671  0.1302 -0.0552
    1W        W51266  14.577  19.048   8.772 -0.0239 -0.3305  0.0740
    1W        W51267   7.629   4.368   2.760 -0.3315 -0.3563  0.1299
    1W        W51268  22.388   5.810   2.354 -0.2076 -0.1615  0.0532
    1W        W51269  16.571   4.621   0.523  0.2378 -0.1276 -0.2872
    1W        W51270  21.260  29.162   2.610  0.3620 -0.0260 -0.4068
    1W        W51271  16.940   7.671   6.323 -0.1880 -0.1714  0.1790
    1W        W51272  11.784   7.933   7.987 -0.1517  0.0414 -0.1580
    1W        W51273   7.693   5.510   7.417 -0.0171  0.0049 -0.2425
    1W        W51274  19.700  16.091   6.485  0.2188  0.2440  0.0024
    1W        W51275  20.153  12.944   7.314 -0.2104 -0.3324 -0.3248
    1W        W51276   6.941   9.137   1.843  0.0590  0.2450  0.1964
    1W        W51277  22.249  23.914   7.484  0.0231  0.2326  0.0024
    1W        W51278  18.429  17.826   6.954  0.2132  0.0176  0.3157
    1W        W51279   3.304  25.564   2.009 -0.0755 -0.0599  0.2782
    1W        W51280   5.895   7.407   9.100 -0.1978 -0.1118  0.1870
    1W        W51281   5.596  16.119   0.683  0.0792  0.1310 -0.1117
    1W        W51282  23.898  10.222   5.961  0.0939  0.0934 -0.2081
    1W        W51283   2.501  17.401   7.403 -0.1546 -0.5662 -0.0430
    1W        W51284  15.797  24.606   9.044 -0.0557  0.0045  0.2456
    1W        W51285  21.313  11.178   1.943 -0.0235  0.3297  0.0199
    1W        W51286   9.887   9.370   8.939  0.1048  0.0752  0.1470
    1W        W51287  25.594   9.166   7.572 -0.2436  0.2710 -0.0883
    1W        W51288  26.076   5.269   1.314  0.2789 -0.2073 -0.1191
    1W        W51289  15.177  24.309   0.537  0.3109 -0.0699 -0.0904
    1W        W51290   7.516   0.921   8.519 -0.3237 -0.0279 -0.2038
    1W        W51291  15.381  12.822   7.277  0.0560 -0.1244 -0.0351
    1W        W51292  14.567   5.510   6.031  0.0449 -0.0461 -0.1144
    1W        W51293  30.177  27.019   8.975 -0.1287  0.2510 -0.2495
    1W        W51294   3.966  23.862   8.124 -0.0386 -0.0906  0.0128
    1W        W51295  17.686  17.927   8.310  0.0672  0.0779  0.5083
    1W        W51296  17.421  16.603   6.481  0.1932 -0.1828 -0.5175
    1W        W51297  22.517  19.035   2.179 -0.0518  0.2672  0.1141
    1W        W51298  19.083  15.802   6.805  0.0497 -0.0119  0.0482
    1W        W51299   1.503  25.107   7.861 -0.0459 -0.1964  0.0058
    1W        W51300  24.259  17.616   0.871  0.2399 -0.2438 -0.1299
    1W        W51301   5.712   2.913   7.664 -0.1562 -0.1059  0.0288
    1W        W51302  13.739  10.139   1.986 -0.1121  0.0347  0.0848
    1W        W51303  18.142  12.594   8.380  0.2674 -0.2370 -0.0094
    1W        W51304  25.539  14.351   8.368  0.1608  0.2665 -0.0131
    1W        W51305  26.240  11.804   7.247  0.0318 -0.1448 -0.2954
    1W        W51306   3.282  18.005   1.334 -0.2898 -0.0802  0.1654
    1W        W51307  12.600   5.740   7.990  0.2489  0.3272 -0.0803
    1W        W51308  24.874  26.198   9.223 -0.0971 -0.0030 -0.2695
    1W        W51309  15.184  14.875   7.394 -0.3026  0.0614 -0.1453
    1W        W51310  17.476  11.244   1.651 -0.0136 -0.1797  0.0911
    1W        W51311  14.421  13.318   2.394 -0.3679 -0.3019 -0.1907
    1W        W51312   8.278   4.083   0.622 -0.1483  0.2260 -0.0496
    1W        W51313  15.012  18.932   9.040  0.0339  0.0546  0.0114
    1W        W51314   0.369  24.599   2.259  0.2373  0.1146 -0.0284
    1W        W51315   3.609  28.478   3.660  0.2103  0.0594  0.4509
    1W        W51316   3.060   1.296   2.323  0.0451 -0.0658  0.0056
    1W        W51317  20.291  15.759   6.584 -0.0910 -0.1488 -0.2235
    1W        W51318  16.513  25.636   9.270 -0.0454 -0.3916  0.2875
    1W        W51319  11.003  11.369   6.539  0.2693  0.0728  0.1245
    1W        W51320  18.927  20.876   7.186 -0.0610 -0.0103  0.2821
    1W        W51321  12.348  26.604   7.760  0.3022  0.2844 -0.0154
    1W        W51322  10.753  21.522   9.013 -0.2047 -0.0706  0.3982
    1W        W51323  23.779   8.765   0.737  0.1224  0.0637  0.1314
    1W        W51324  17.270  25.566   1.781  0.0574 -0.1834  0.3432
    1W        W51325   9.853  27.851   7.404 -0.1878  0.3627  0.0774
    1W        W51326   7.664  27.424   7.562 -0.1400  0.0237 -0.0906
    1W        W51327  17.417   2.443   8.481  0.2081  0.0968  0.1655
    1W        W51328  12.190  27.447   7.793  0.1697 -0.2166  0.3223
    1W        W51329  26.095  28.305   0.537  0.0480  0.0774  0.0761
    1W        W51330   9.124  14.555   8.472  0.0044 -0.1377  0.1504
    1W        W51331  28.633  29.096   0.582  0.1291 -0.1391  0.1051
    1W        W51332   3.868   7.120   1.360 -0.0703  0.1939  0.2112
    1W        W51333   3.321   3.639   0.290  0.3191 -0.1762 -0.0866
    1W        W51334   9.771  16.495   1.115  0.3360  0.2311 -0.1218
    1W        W51335   7.900  27.048   6.690 -0.0207  0.1111  0.0165
    1W        W51336  26.981   4.495   6.974  0.0077  0.0588  0.1458
    1W        W51337  26.025  17.160   0.964  0.0553  0.2628  0.2078
    1W        W51338  16.375  12.058   8.827  0.1183 -0.1754  0.0962
    1W        W51339   3.226  28.121   8.620  0.0524 -0.0863  0.2042
    1W        W51340  16.846  28.919   6.602  0.2575  0.0155  0.3996
    1W        W51341   9.633  28.687   2.816  0.2664  0.1836 -0.3127
    1W        W51342   2.610  21.625   1.172  0.1700  0.1383 -0.0992
    1W        W51343  16.565   7.993   6.310  0.1742  0.2169 -0.0841
    1W        W51344  28.383   5.985   8.011 -0.1696  0.0394  0.2089
    1W        W51345  12.577   8.567   0.638 -0.0886  0.1927  0.1496
    1W        W51346  13.058   4.462   8.228 -0.2068  0.0147 -0.3519
    1W        W51347   5.681  13.769   7.362 -0.1931  0.2736 -0.0226
    1W        W51348  23.325  24.738   1.136 -0.0885  0.1674 -0.2744
    1W        W51349   9.421  24.147   8.811  0.1259 -0.0077  0.1231
    1W        W51350  28.569  18.763   7.357 -0.3927 -0.1241 -0.1634
    1W        W51351  28.606  20.945   8.126 -0.2241 -0.0425 -0.1855
    1W        W51352  12.841  25.279   0.840 -0.0146 -0.0820  0.0033
    1W        W51353  13.615  29.861   1.497 -0.1068 -0.0976 -0.0496
    1W        W51354  13.788  12.777   6.939 -0.0795 -0.1002  0.0796
    1W        W51355   8.801  11.839   8.277 -0.1936  0.3761 -0.1061
    1W        W51356   8.832  18.754   7.314  0.1045 -0.0013  0.0305
    1W        W51357  23.022  12.186   8.970 -0.0104  0.0675  0.2098
    1W        W51358   5.889  15.200   1.818  0.2536  0.1113 -0.3211
    1W        W51359  23.750  22.796   8.386 -0.2708  0.0894  0.1489
    1W        W51360  27.749  19.222   0.606  0.1226  0.2651  0.1776
    1W        W51361  23.626   2.892   1.242  0.1293 -0.0735  0.2868
    1W        W51362  11.839  28.318   0.459 -0.2141 -0.0918 -0.2092
    1W        W51363  18.450  27.835   2.832 -0.0426 -0.3141 -0.1984
    1W        W51364  28.216  10.262   1.311 -0.2685 -0.1028 -0.1164
    1W        W51365  21.087   9.525   8.303 -0.0237 -0.1815  0.1493
    1W        W51366  10.705   3.099   6.649 -0.1399  0.0348 -0.3457
    1W        W51367  28.978  17.622   1.327 -0.2897  0.1099 -0.0902
    1W        W51368  26.931   7.804   1.435  0.0206 -0.1308  0.3093
    1W        W51369  12.610  20.773   5.985  0.1787  0.1970 -0.1064
    1W        W51370  18.526  10.223   8.321 -0.0309  0.0460 -0.1487
    1W        W51371  16.803   2.538   0.180  0.2259  0.1785  0.1591
    1W        W51372  18.768  12.066   0.049 -0.0234 -0.0467  0.0229
    1W        W51373  24.418  12.538   2.233  0.0096 -0.0986  0.1308
    1W        W51374   5.158   5.090   8.765 -0.0920 -0.1597  0.1822
    1W        W51375   6.934   8.582   8.850 -0.3352  0.1462  0.0141
    1W        W51376  27.359  14.877   1.643  0.0644 -0.0568 -0.0686
    1W        W51377  28.478  25.419   7.997  0.2792  0.3139  0.3125
    1W        W51378  11.857  17.254   1.030  0.2778  0.0059  0.2998
    1W        W51379  13.935  29.094   2.971  0.2268  0.2251 -0.0131
    1W        W51380   7.536  12.733   2.581  0.4780 -0.3593  0.0771
    1W        W51381  23.253  16.380   0.007 -0.2360 -0.1519 -0.1955
    1W        W51382  11.433   2.398   5.861 -0.1743  0.0944  0.0259
    1W        W51383  29.741   2.427   2.182 -0.0947  0.0498 -0.1982
    1W        W51384  10.767  16.715   7.831 -0.2511  0.1968  0.1548
    1W        W51385   6.724  28.917   2.767 -0.2128 -0.1317 -0.2846
    1W        W51386  20.476  10.376   2.120 -0.2256 -0.1992  0.1196
    1W        W51387  12.761  14.392   7.907  0.0924 -0.0966 -0.1631
    1W        W51388  27.745   8.759   1.085  0.0200  0.0126  0.0852
    1W        W51389  21.343   6.927   7.033 -0.0833  0.0462 -0.0709
    1W        W51390  16.002  19.017   8.755 -0.0064  0.0039 -0.0805
    1W        W51391  21.360  11.325   7.629  0.2435 -0.2299 -0.1437
    1W        W51392  13.875   5.794   0.098 -0.3561 -0.1774  0.1775
    1W        W51393  27.021  12.566   7.934 -0.0630 -0.0003 -0.2531
    1W        W51394  22.847  27.934   7.369  0.1097  0.1021  0.2802
    1W        W51395  13.261  13.240   2.172 -0.0916 -0.1077  0.3292
    1W        W51396  28.250  27.353   7.356 -0.1828 -0.1737  0.0109
    1W        W51397   1.276  25.031   6.757  0.0468  0.1710 -0.2207
    1W        W51398   1.145  10.647   8.730  0.0529  0.0242  0.0043
    1W        W51399  15.284  19.609   8.410  0.2367  0.1001 -0.1504
    1W        W51400  20.641  28.188   1.474  0.3314  0.3030  0.1869
    1W        W51401  13.752  25.329   1.386 -0.2100  0.1516  0.1458
    1W        W51402  16.172   7.507   7.838 -0.0551 -0.4256 -0.0818
    1W        W51403  16.721  19.029   2.404  0.3329  0.0169  0.1532
    1W        W51404  15.045  15.980   0.653 -0.2681 -0.0210 -0.0796
    1W        W51405  12.932  14.682   2.374 -0.3770 -0.1257  0.1623
    1W        W51406   2.050  21.177   8.831  0.1353 -0.1136  0.1501
    1W        W51407   8.055   5.482   7.031 -0.1082 -0.0061 -0.0918
    1W        W51408  11.237  26.265   6.608  0.2090  0.1766  0.0410
    1W        W51409  20.400  21.721   0.438 -0.1572 -0.0129 -0.3042
    1W        W51410   8.008  26.964   0.339  0.0786  0.1651 -0.2282
    1W        W51411  24.785  11.463   7.308  0.2040 -0.0733  0.2047
    1W        W51412   3.396   8.483   2.096 -0.2216  0.0230 -0.4122
    1W        W51413  15.346  15.302   6.941 -0.0239  0.0555 -0.1020
    1W        W51414   6.294  20.531   1.442  0.0457  0.0472  0.3389
    1W        W51415  14.974  28.491   2.665 -0.0772  0.1397 -0.1087
    1W        W51416  19.434  12.917   8.768  0.2481  0.0468 -0.4031
    1W        W51417  26.009  13.619   8.907  0.0210  0.0999  0.0305
    1W        W51418   1.925  27.641   0.784 -0.2720  0.1725 -0.0673
    1W        W51419  23.379  14.463   7.700 -0.1110 -0.0290  0.1089
    1W        W51420   1.517   8.047   0.608  0.2887 -0.0796  0.0168
    1W        W51421  27.660   0.300   7.922  0.0719  0.1016 -0.0537
    1W        W51422  11.533  17.769   2.869 -0.0670  0.2497 -0.1756
    1W        W51423  19.692  29.403   1.146 -0.1090 -0.0191 -0.0581
    1W        W51424  23.036   1.180   3.115 -0.2058 -0.3061 -0.2163
    1W        W51425   3.962   0.724   2.524 -0.0676 -0.2863 -0.2644
    1W        W51426   2.948  24.504   1.450 -0.0482 -0.0303 -0.1574
    1W        W51427   1.544  17.489   7.546 -0.0068  0.1096 -0.2755
    1W        W51428  18.451   2.523   6.165 -0.0129  0.0252  0.2692
    1W        W51429   8.817  25.007   1.112 -0.3084  0.4830 -0.0832
    1W        W51430  20.838   0.786   2.845 -0.0050 -0.2019 -0.0688
    1W        W51431  21.810  12.248   1.511 -0.0549  0.0285  0.1657
    1W        W51432  17.710   2.349   8.855 -0.1313 -0.0425  0.1338
    1W        W51433  10.614  26.460   8.487 -0.2758  0.1347  0.1051
    1W        W51434   7.130   6.048   7.704  0.0043  0.0352  0.1010
    1W        W51435   9.108  23.442   1.895 -0.0141 -0.3437 -0.0538
    1W        W51436  23.601  20.770   7.602 -0.3227  0.0776  0.0032
    1W        W51437   9.690  22.751   1.414  0.0874 -0.1525  0.0594
    1W        W51438   3.589   6.951   8.295  0.2492 -0.3399 -0.0699
    1W        W51439   1.974   5.256   8.991  0.0687  0.0738 -0.2053
    1W        W51440  17.961   0.551   7.773 -0.0615 -0.0200  0.0095
    1W        W51441   2.583   7.725   8.672  0.0115 -0.2427 -0.2136
    1W        W51442  14.146  20.476   6.651  0.0559 -0.3908  0.0657
    1W        W51443  29.014  14.753   7.030 -0.0917  0.1607 -0.2023
    1W        W51444  10.895  23.406   2.569 -0.1141  0.1863  0.1659
    1W        W51445   1.510  20.793   8.649 -0.1021 -0.2094 -0.0690
    1W        W51446  13.611   9.415   7.839 -0.0400  0.2103 -0.3744
    1W        W51447   9.571   8.612   0.531 -0.1939 -0.2051 -0.0151
    1W        W51448  28.634  17.724   8.202  0.1259 -0.0058  0.5158
    1W        W51449  10.325  18.562   6.594 -0.2503 -0.1970  0.0479
    1W        W51450   4.594  23.260   8.583  0.0450 -0.2196 -0.2060
    1W        W51451   4.887  13.847   8.785 -0.2168  0.2287  0.0798
    1W        W51452  19.634  15.098   0.378 -0.1194  0.1132 -0.1352
    1W        W51453  21.697  24.497   9.258  0.0531 -0.5171  0.1991
    1W        W51454   6.394   4.042   3.202  0.1668  0.1200  0.0490
    1W        W51455  18.613  25.441   7.791 -0.0298 -0.0252 -0.2184
    1W        W51456   8.786   3.960   8.359  0.1421  0.0656 -0.0912
    1W        W51457  11.166  14.581   7.632 -0.0278  0.2608  0.1612
    1W        W51458   7.548   7.749   6.955  0.0662 -0.3497 -0.2144
    1W        W51459  14.464  23.692   0.328 -0.0748  0.0482  0.1228
    1W        W51460  20.095  13.599   2.106 -0.0050 -0.0455 -0.0420
    1W        W51461  11.400  25.964   1.976  0.1600 -0.0840  0.2033
    1W        W51462  24.067  15.816   1.300 -0.1060 -0.1186  0.0339
    1W        W51463   5.395   2.568   8.999 -0.0859  0.0189  0.4139
    1W        W51464  22.298  15.433   7.604 -0.0339  0.0922  0.2265
    1W        W51465   2.823  16.249   8.104  0.0417 -0.1953  0.0385
    1W        W51466  28.513  25.289   2.751 -0.0632 -0.1950  0.0405
    1W        W51467  15.216  29.151   1.489  0.4176  0.0453  0.0488
    1W        W51468   3.083   0.498   3.129  0.1321 -0.1586  0.4215
    1W        W51469  26.153  18.024   8.552 -0.2963 -0.0508 -0.2862
    1W        W51470   1.774  18.375   6.738 -0.0233 -0.2569 -0.2636
    1W        W51471  26.344  12.879   1.495 -0.1342 -0.2166  0.3300
    1W        W51472   4.826  12.896   6.996  0.1252 -0.0447 -0.3048
    1W        W51473  24.048   5.033   7.322  0.1108  0.0719 -0.0658
    1W        W51474  21.712  15.243   8.747  0.4102  0.0890  0.0676
    1W        W51475   6.751  22.297   0.903 -0.2563  0.0509 -0.0793
    1W        W51476  10.638   7.126   2.285 -0.0405 -0.1813  0.1002
    1W        W51477  10.660   7.497   1.978  0.1168 -0.1169 -0.0404
    1W        W51478  29.262   7.178   1.402 -0.1730 -0.2192  0.4119
    1W        W51479   2.466  12.806   8.249 -0.2102 -0.0706 -0.0817
    1W        W51480  18.015   6.345   0.057  0.0510  0.0323  0.3833
    1W        W51481   0.725   4.465   2.430 -0.3546  0.2048 -0.2628
    1W        W51482  14.964  14.900   8.672  0.1571  0.1362 -0.0369
    1W        W51483   0.998   8.636   8.649 -0.2610 -0.0346  0.2783
    1W        W51484  26.220  17.415   2.131 -0.2124 -0.0186  0.1174
    1W        W51485   9.893  11.439   7.476  0.0127 -0.3254  0.1326
    1W        W51486  20.863  10.385   8.775  0.0847  0.0678  0.1964
    1W        W51487  23.313   0.243   6.746 -0.1639  0.0137 -0.1714
    1W        W51488  11.538  28.645   8.822 -0.0228  0.2476 -0.1035
    1W        W51489  28.010  13.767   0.947  0.2249 -0.0635  0.0719
    1W        W51490  19.876  16.186   2.796 -0.0721 -0.2617 -0.2027
    1W        W51491  18.551  10.216   2.892 -0.1923  0.0155 -0.2174
    1W        W51492   2.400  27.425   2.071  0.2982  0.1266 -0.1729
    1W        W51493   1.672   3.008   1.873  0.0160  0.2331  0.1049
    1W        W51494   9.599  14.816   1.695  0.0167  0.0905  0.0677
    1W        W51495   8.201  11.195   7.785 -0.0794  0.0316  0.1517
    1W        W51496  24.350  19.416   6.787  0.0881 -0.3015 -0.1061
    1W        W51497   8.033  11.732   0.007 -0.0248 -0.0155 -0.1633
    1W        W51498   1.786  23.532   7.421 -0.3241 -0.1040  0.1731
    1W        W51499  14.826   5.431   0.633  0.1998  0.1864  0.0380
    1W        W51500  14.019  11.884   3.613  0.0146  0.1882 -0.0017
    1W        W51501  24.645  22.051   0.635 -0.3446 -0.0150 -0.1333
    1W        W51502  23.403   9.606   0.365 -0.3265 -0.2846  0.0917
    1W        W51503  22.435  10.556   6.862  0.1200 -0.1293  0.1971
    1W        W51504   6.792  11.368   2.057  0.1068  0.0153 -0.0725
    1W        W51505  21.648  10.101   2.475 -0.2690  0.1585 -0.2048
    1W        W51506  14.041   0.018   0.409  0.3828  0.2089  0.1983
    1W        W51507  20.463  14.401   7.909 -0.0415  0.0714  0.0377
    1W        W51508  15.398   2.252   6.818  0.0106 -0.0039 -0.5136
    1W        W51509   5.130   7.230   1.417 -0.3732 -0.0150 -0.0756
    1W        W51510   7.314  18.082   9.039  0.0558  0.2133 -0.0641
    1W        W51511   4.008   5.413   7.656  0.0699  0.1429 -0.0970
    1W        W51512   1.925  10.943   1.949  0.1381 -0.0448 -0.1049
    1W        W51513  16.865  18.792   7.006 -0.0887  0.1337 -0.2175
    1W        W51514   2.703  25.065   7.660 -0.0601  0.1250  0.0410
    1W        W51515   8.960  17.960   5.807  0.0599 -0.2940 -0.1420
    1W        W51516   0.981   7.486   1.823  0.1039  0.0341 -0.0468
    1W        W51517  22.829  30.233   2.671  0.0466 -0.2039 -0.4095
    1W        W51518  30.173  18.445   8.722 -0.1848  0.1594  0.1293
    1W        W51519  20.905   2.270   0.049  0.0285 -0.2226  0.0743
    1W        W51520  22.207  19.258   7.009 -0.2074 -0.2037  0.0674
    1W        W51521  15.178  22.258   8.322  0.1044  0.0119 -0.3167
    1W        W51522   4.981   0.699   0.870 -0.0301 -0.1927 -0.1771
    1W        W51523  25.499   4.060   1.579 -0.0598 -0.0667  0.0924
    1W        W51524   0.222   0.364   0.125  0.3588  0.2265  0.0323
    1W        W51525   1.561  17.869   6.554  0.2226  0.1491 -0.1881
    1W        W51526  15.645  17.346   9.016  0.1668  0.2291 -0.2010
    1W        W51527   5.270  26.993   3.573  0.1504 -0.2993 -0.0356
    1W        W51528  18.791  26.382   8.527  0.3140  0.2029  0.2461
    1W        W51529  13.665  29.083   2.142 -0.4146  0.0076 -0.0645
    1W        W51530  26.705  29.506   3.708 -0.1311 -0.2415  0.0311
    1W        W51531  24.163  16.732   6.583 -0.0215  0.0807 -0.3125
    1W        W51532  13.914   9.325   9.044 -0.0805 -0.3079  0.1262
    1W        W51533   0.226  26.764   3.010 -0.0162  0.1669  0.2257
    1W        W51534  21.693  20.557   8.926 -0.0094  0.2191 -0.0170
    1W        W51535   7.729  12.386   2.867 -0.1784  0.1446 -0.2613
    1W        W51536   2.933   2.759   2.907 -0.2687  0.0121  0.1014
    1W        W51537  13.208  17.250   6.450  0.3395 -0.0778  0.2631
    1W        W51538   8.590  18.251   6.031  0.2927  0.0017  0.1166
    1W        W51539  21.945  17.705   8.906 -0.1967 -0.5269  0.0327
    1W        W51540   0.388   0.788   0.381 -0.1813  0.0978 -0.0691
    1W        W51541   0.862  17.859   0.118  0.0972 -0.2001 -0.0244
    1W        W51542  15.849  26.985   2.229  0.0339 -0.0258 -0.0669
    1W        W51543  11.970   6.452   0.188  0.2377  0.1563  0.2892
    1W        W51544  25.006  11.394   6.821 -0.2274 -0.0025  0.0417
    1W        W51545  28.177   0.243   2.305  0.2015 -0.0735  0.0240
    1W        W51546  11.729  29.062   7.315 -0.0806 -0.0362  0.1021
    1W        W51547  10.009   0.989   1.005  0.0981  0.2425  0.1609
    1W        W51548  20.480   9.623   1.001  0.0235 -0.2341  0.1653
    1W        W51549   1.122  20.155   1.877  0.2804 -0.1187  0.2284
    1W        W51550   1.777   9.065   2.278  0.0181  0.2985  0.3690
    1W        W51551  28.755  16.185   0.906 -0.1869 -0.0480 -0.0840
    1W        W51552   6.117   8.216   2.965  0.0317 -0.0748  0.0346
    1W        W51553  27.548   8.703   1.711 -0.0850  0.1240 -0.1928
    1W        W51554  11.648  15.125   8.603 -0.2258 -0.2562  0.0128
    1W        W51555  17.692   1.484   1.882  0.0770  0.4496 -0.1567
    1W        W51556  26.078  22.036   9.260 -0.0749 -0.2069  0.0544
    1W        W51557   4.608  11.972   2.199 -0.2655 -0.2615  0.2823
    1W        W51558   7.883   2.901   2.421 -0.5304 -0.0284  0.1896
    1W        W51559  13.255   8.831   2.546 -0.0588  0.0173 -0.1368
    1W        W51560  10.359  17.773   5.897 -0.0732  0.0415  0.0070
    1W        W51561   7.275   7.917   0.968  0.1778  0.0816  0.1032
    1W        W51562  13.212  20.503   6.230 -0.1550  0.0551 -0.1208
    1W        W51563  26.258   4.437   7.728 -0.2469  0.2200 -0.1704
    1W        W51564   5.076  20.202   0.205 -0.3743 -0.0172  0.0918
    1W        W51565  10.010  13.035   7.625 -0.2940  0.2218  0.3482
    1W        W51566  22.668  15.018   7.620 -0.0769  0.0392 -0.1416
    1W        W51567   6.131  25.417   8.321  0.0818 -0.3235  0.0767
    1W        W51568  12.951  10.754   3.553  0.0541 -0.0105  0.1564
    1W        W51569   3.133  12.635   9.217  0.0774  0.0133 -0.0425
    1W        W51570  20.249  25.063   6.524  0.0912  0.1791 -0.1220
    1W        W51571  17.163  19.867   8.743  0.1631  0.1994  0.1892
    1W        W51572   6.346  14.569   1.058 -0.0784 -0.1516  0.3388
    1W        W51573  21.783   5.470   7.528  0.1829 -0.0015 -0.0841
    1W        W51574  25.607   4.889   8.139 -0.0362  0.0543  0.1168
    1W        W51575  26.346  18.873   1.093 -0.1134 -0.1116  0.1532
    1W        W51576  22.404  17.003   0.497 -0.0963  0.3415 -0.0147
    1W        W51577   3.614  17.765   9.200 -0.0462  0.2208 -0.3087
    1W        W51578   1.752  14.418   7.841  0.1204 -0.0941  0.0409
    1W        W51579  17.239   8.899   6.689  0.1535  0.1458 -0.0448
    1W        W51580  11.657  10.555   0.320  0.2460  0.4068 -0.4588
    1W        W51581   1.667  16.629   2.053 -0.0520  0.2632 -0.2312
    1W        W51582   9.912  16.198   0.586  0.1952  0.2479 -0.0084
    1W        W51583  13.777  12.642   9.087  0.2831 -0.1230 -0.1773
    1W        W51584  18.412  18.709   8.141  0.1063  0.2538  0.0911
    1W        W51585   6.396   5.020   1.508  0.0111  0.1572 -0.0242
    1W        W51586   9.702  12.055   0.269  0.1260  0.0124  0.2749
    1W        W51587  14.628  21.357   8.666  0.0692  0.2740 -0.1213
    1W        W51588  12.914  15.143   7.404 -0.1418 -0.2260  0.1137
    1W        W51589  26.204   5.835   2.001 -0.0806 -0.1814 -0.1021
    1W        W51590  14.127  17.250   8.974  0.2930  0.0887 -0.1902
    1W        W51591  29.193  19.488   7.270 -0.2594  0.0248  0.2831
    1W        W51592  28.276  18.463   0.089  0.5023 -0.0541  0.0093
    1W        W51593   4.819   0.941   8.215 -0.2387  0.3927  0.4401
    1W        W51594   2.328  11.473   8.382 -0.1676  0.0981 -0.0230
    1W        W51595  16.631  23.000   0.286 -0.0894  0.2869  0.0587
    1W        W51596  16.553  28.966   7.498  0.0302 -0.0530 -0.0522
    1W        W51597  28.458  20.831   0.405  0.0174 -0.0520 -0.2578
    1W        W51598  21.153  20.125   6.258  0.2403 -0.2074  0.0574
    1W        W51599   6.656  22.806   8.714 -0.3185 -0.0516  0.1597
    1W        W51600  19.692  23.502   0.365  0.0395 -0.2529 -0.3701
    1W        W51601  10.889  25.867   1.874 -0.1962 -0.1919 -0.3674
    1W        W51602  12.103  20.416   5.962 -0.0889 -0.0262 -0.2054
    1W        W51603  19.571  18.642   9.139  0.2762  0.0822  0.0410
    1W        W51604  12.691  13.736   1.693 -0.0663 -0.0131 -0.1823
    1W        W51605   1.399  26.146   2.384  0.0118 -0.2241 -0.1894
    1W        W51606  15.593   0.868   5.862  0.1481  0.1575  0.1796
    1W        W51607   2.599  16.578   7.101 -0.0266 -0.3399 -0.2002
    1W        W51608  15.685   7.923   2.198 -0.0399 -0.1698 -0.0307
    1W        W51609   7.382  18.300   2.058 -0.0101  0.0957  0.3045
    1W        W51610  16.209  30.280   7.727  0.3729 -0.3495 -0.4781
    1W        W51611   1.050  22.498   0.842 -0.0055 -0.2863  0.1253
    1W        W51612  27.562  27.561   0.298  0.3012 -0.2628 -0.1067
    1W        W51613  11.367  17.369   7.851  0.1933 -0.2039  0.0495
    1W        W51614  22.903  23.542   8.550  0.0660  0.0345 -0.5333
    1W        W51615  28.302   7.650   1.570  0.1577  0.0905 -0.3098
    1W        W51616  15.502  23.688   2.316  0.1362 -0.1204  0.1098
    1W        W51617  12.209  10.705   1.688  0.2774  0.0815  0.1264
    1W        W51618  26.184   5.495   2.437 -0.0544 -0.2134  0.0470
    1W        W51619   2.520   5.384   8.857  0.2867 -0.1368  0.2794
    1W        W51620   7.685  23.595   6.332 -0.2816  0.3883 -0.3317
    1W        W51621   9.899  10.962   0.886 -0.2780  0.0207 -0.4531
    1W        W51622  13.064   7.647   1.295 -0.0287 -0.0941 -0.0116
    1W        W51623  29.249  28.437   1.200  0.3252  0.0657  0.2179
    1W        W51624  28.804  19.327   1.212  0.2279  0.2451  0.0051
    1W        W51625  24.545  10.447   9.162 -0.3807  0.1369 -0.0268
    1W        W51626  25.108  20.431   7.997 -0.1918 -0.0688 -0.2483
    1W        W51627   3.469  19.929   7.127 -0.0015  0.0919 -0.1324
    1W        W51628  17.132   2.426   2.686  0.5433 -0.0068 -0.0873
    1W        W51629  23.874   7.535   8.147  0.2019 -0.2209  0.0159
    1W        W51630   7.047  25.367   1.412 -0.2211 -0.2812 -0.3322
    1W        W51631  26.485   5.000   8.541 -0.1411  0.1271 -0.0597
    1W        W51632  11.131  22.508   0.274  0.2368 -0.0193  0.0496
    1W        W51633  29.497   1.395   7.541 -0.2446 -0.0528  0.2693
    1W        W51634  14.250  21.498   7.023  0.1415 -0.1211  0.0149
    1W        W51635  10.439  21.708   0.395  0.5264  0.0059  0.0225
    1W        W51636  27.380   2.039   1.381 -0.0437  0.2147 -0.0662
    1W        W51637  26.171  28.385   3.078 -0.4799  0.0552  0.0392
    1W        W51638  18.906   2.964   6.955  0.2300 -0.1942  0.2593
    1W        W51639  13.312  13.054   0.553 -0.2149  0.1705 -0.2584
    1W        W51640  14.010   4.603   7.297 -0.2297  0.0398 -0.0740
    1W        W51641   6.912  13.412   0.578 -0.2969 -0.5127 -0.0142
    1W        W51642  28.104   2.085   8.941 -0.0763 -0.2169  0.1498
    1W        W51643   1.247  19.444   7.299 -0.0650 -0.0707 -0.0153
    1W        W51644   2.070  20.824   0.910  0.0407 -0.4766  0.0038
    1W        W51645  25.897   4.498   2.594 -0.0002 -0.0358 -0.0158
    1W        W51646  19.419   1.026   1.242  0.0066 -0.0037 -0.0707
    1W        W51647   1.392  20.906   1.436  0.3960  0.1028  0.0953
    1W        W51648  19.216   7.124   1.706 -0.0513  0.3090 -0.1999
    1W        W51649   0.299   8.723   2.609 -0.1080 -0.4413  0.2226
    1W        W51650  26.814  15.331   1.966 -0.1332  0.0659 -0.2176
    1W        W51651   8.286   7.412   2.690  0.1769 -0.1720  0.1590
    1W        W51652   7.521  25.696   6.945  0.2787  0.2536 -0.4023
    1W        W51653  24.594  21.452   2.624 -0.1347  0.1800  0.1245
    1W        W51654  20.660  25.237   9.115  0.0851  0.1241  0.0486
    1W        W51655   8.895  19.851   7.766 -0.0118 -0.1142  0.1491
    1W        W51656   8.299  17.708   2.358 -0.1437 -0.0379 -0.0587
    1W        W51657  27.161  23.061   8.023  0.2114 -0.0896  0.3154
    1W        W51658  25.016  24.008   7.299  0.0505 -0.2947 -0.1153
    1W        W51659   2.185   1.114   0.609 -0.3059  0.0113  0.2017
    1W        W51660   5.769  17.838   8.240  0.0485  0.2611  0.2063
    1W        W51661  22.888   1.453   2.505 -0.0995  0.2446 -0.0376
    1W        W51662  13.023  25.935   7.645  0.0219 -0.0470 -0.1573
    1W        W51663  30.117   3.515   0.937 -0.0093  0.2732  0.0176
    1W        W51664  10.515  23.998   6.989  0.3463 -0.3109  0.2016
    1W        W51665  14.014  19.788   0.832  0.1355  0.2958  0.0974
    1W        W51666  12.648   4.817   2.154 -0.1705 -0.2151  0.0145
    1W        W51667  15.130   3.209   8.136  0.1471 -0.4264  0.1447
    1W        W51668  17.543  22.380   6.414  0.2179  0.0245 -0.0673
    1W        W51669   3.412   3.147   7.962 -0.2981  0.4087 -0.2004
    1W        W51670   2.744  17.871   9.007  0.1948  0.2577  0.2410
    1W        W51671  27.456  27.427   1.170 -0.1176  0.2152 -0.2953
    1W        W51672   0.335  27.079   1.361 -0.2408  0.1586  0.0161
    1W        W51673  17.359  17.218   7.096  0.1913  0.3807 -0.2269
    1W        W51674  28.827  21.893   7.220 -0.3788  0.2994  0.2223
    1W        W51675  27.396  17.601   8.122 -0.0200  0.1027  0.3807
    1W        W51676  26.726  19.385   0.807  0.0470  0.1108 -0.4048
    1W        W51677  10.757   6.047   2.378  0.1683  0.1061 -0.3232
    1W        W51678  30.044   4.093   3.501 -0.0662  0.0424 -0.1330
    1W        W51679  13.538  10.690   1.292  0.1834 -0.4606 -0.2626
    1W        W51680   4.482   4.446   8.659 -0.0957  0.1834 -0.1592
    1W        W51681   5.965  11.662   0.714 -0.2438  0.0387  0.2569
    1W        W51682  11.930  29.998   7.216  0.1965 -0.0273 -0.0385
    1W        W51683  16.521   7.519   0.490 -0.0668  0.1683 -0.1215
    1W        W51684  23.983  18.925   8.835  0.2906 -0.0061  0.3118
    1W        W51685  30.264  16.973   6.856 -0.0010 -0.0269 -0.1745
    1W        W51686   2.297  23.341   1.918 -0.2892 -0.1986  0.0080
    1W        W51687  30.086   1.221   7.408 -0.0237 -0.1200  0.1604
    1W        W51688   2.600   7.811   7.048 -0.1098  0.0078  0.1779
    1W        W51689   0.431  15.406   6.391 -0.1627 -0.0817  0.1563
    1W        W51690   7.206   9.137   1.257  0.1430 -0.3294 -0.2557
    1W        W51691  17.065  18.739   5.682  0.3689  0.5289  0.1682
    1W        W51692   6.437   3.494   3.050  0.0919 -0.1746  0.1405
    1W        W51693   9.773  19.045   7.790 -0.0161  0.0048  0.2035
    1W        W51694  20.264   5.389   1.317 -0.3505  0.3444  0.0986
    1W        W51695  30.032  22.802   7.857  0.2136 -0.1020  0.3323
    1W        W51696  27.737  29.064   3.179  0.2541  0.1412  0.1544
    1W        W51697   9.718  25.991   6.957 -0.0001  0.2262 -0.3350
    1W        W51698   2.893   4.185   8.938  0.0599  0.0208  0.2440
    1W        W51699   8.602  22.174   1.310  0.0871  0.3201  0.1041
    1W        W51700  24.566  23.284   8.407 -0.2586 -0.3207  0.1456
    1W        W51701  27.072   8.095   7.275  0.0432  0.1427 -0.1177
    1W        W51702  14.017  19.974   2.101  0.1124  0.2295  0.2839
    1W        W51703  29.950  20.169   7.849 -0.1413 -0.1149 -0.3423
    1W        W51704   8.804  19.692   7.267 -0.0589 -0.1936 -0.2033
    1W        W51705   6.207   3.678   7.195  0.1113 -0.0075 -0.0379
    1W        W51706  16.094  16.972   1.186  0.0299 -0.0121 -0.0400
    1W        W51707  19.993  17.505   7.598 -0.0592 -0.1641  0.1657
    1W        W51708  15.973  19.322   9.189 -0.2981 -0.3493 -0.2025
    1W        W51709  22.670  26.361   7.067  0.2066 -0.1138  0.0424
    1W        W51710   2.432   7.117   2.911  0.0100 -0.1985 -0.1357
    1W        W51711   1.865   8.128   1.809  0.0016 -0.0099  0.2338
    1W        W51712  15.570  23.519   6.653  0.0467  0.0720 -0.1254
    1W        W51713  18.563  15.678   6.694  0.1649 -0.2062 -0.1968
    1W        W51714  15.561  20.174   0.732  0.2005 -0.1207 -0.0110
    1W        W51715  11.233  11.710   8.918 -0.0889 -0.2591  0.1306
    1W        W51716   2.782  16.860   1.168 -0.1474 -0.1341 -0.0421
    1W        W51717   3.701  25.919   7.515  0.1526 -0.1659 -0.2647
    1W        W51718  29.618  20.849   6.947  0.1570  0.1192 -0.0517
    1W        W51719  29.792  12.095   7.044  0.1459 -0.0594  0.2209
    1W        W51720  14.324   9.804   2.560  0.0161  0.1709 -0.0580
    1W        W51721   6.995  13.116   1.073 -0.1933 -0.3971  0.1712
    1W        W51722   8.140   4.155   2.624 -0.0483 -0.0224 -0.1032
    1W        W51723  26.498   9.244   0.287  0.0483  0.1802 -0.2290
    1W        W51724  28.013  24.941   9.176 -0.3543  0.0391 -0.1600
    1W        W51725   0.050  30.145   8.957  0.2482 -0.0504  0.0472
    1W        W51726   9.538  29.932   0.271 -0.0731  0.0161 -0.2835
    1W        W51727  13.497  17.857   1.244  0.2887 -0.0645 -0.0917
    1W        W51728  13.769   9.157   7.049  0.1495  0.2460 -0.0537
    1W        W51729  23.374   1.001   9.107  0.0734  0.0253  0.1363
    1W        W51730   5.581   5.995   2.568 -0.0853  0.1303  0.2836
    1W        W51731   6.755  11.107   1.648 -0.0260  0.0269  0.2147
    1W        W51732  25.601  23.422   2.018  0.2999  0.0425  0.0879
    1W        W51733  27.711  13.353   7.615 -0.0013 -0.1740  0.2839
    1W        W51734  26.626  21.091   1.645  0.3322 -0.0680  0.1567
    1W        W51735  22.412  15.776   1.134 -0.0056  0.1783  0.1584
    1W        W51736  13.741  16.977   9.210 -0.3687 -0.3247  0.1670
    1W        W51737  23.412   4.719   2.732  0.0547 -0.0558 -0.2570
    1W        W51738  28.721  16.375   1.866 -0.1117  0.2804  0.2128
    1W        W51739   4.742  26.761   2.189 -0.0458 -0.2116  0.2370
    1W        W51740  17.111  14.437   7.290 -0.1402 -0.1502  0.0430
    1W        W51741   4.562  24.524   8.706 -0.0694  0.2140 -0.0299
    1W        W51742  18.901  21.036   0.753  0.0848  0.2039  0.1700
    1W        W51743  13.500  11.324   2.394 -0.1416  0.0241  0.1014
    1W        W51744  16.695  22.989   0.960 -0.0691 -0.0269 -0.2694
    1W        W51745   2.140  26.411   8.358 -0.1151  0.0565 -0.2342
    1W        W51746  26.102  23.227   8.263  0.1235  0.2382 -0.1653
    1W        W51747  18.859  26.128   2.959  0.3116 -0.0333 -0.2073
    1W        W51748   8.004  15.142   1.437  0.1372  0.2313 -0.2353
    1W        W51749  27.871  10.852   1.953  0.1631  0.1573 -0.0083
    1W        W51750   0.962   9.156   0.610 -0.0974 -0.0041 -0.0159
    1W        W51751   1.163   5.637   8.681  0.1202 -0.0319  0.1428
    1W        W51752  20.507  15.544   6.091 -0.1956  0.0397  0.1539
    1W        W51753  16.492   2.482   6.673 -0.3041 -0.1896 -0.1843
    1W        W51754  10.426  29.868   8.073 -0.1135  0.2192  0.0830
    1W        W51755  25.944  23.615   1.708 -0.0746  0.1416 -0.1529
    1W        W51756   7.802  26.253   1.246 -0.1964  0.0941 -0.1831
    1W        W51757  24.721  18.905   7.661  0.1560  0.1559 -0.0433
    1W        W51758   4.496  27.645   3.095  0.2170 -0.3621 -0.1452
    1W        W51759  14.055  25.616   6.799 -0.0407 -0.1318  0.2201
    1W        W51760  11.783   2.358   2.077  0.0663  0.0615  0.0537
    1W        W51761  15.688   4.765   1.983  0.0619  0.5217 -0.0171
    1W        W51762   8.534  28.487   0.588  0.0861  0.2204 -0.2040
    1W        W51763  11.813  18.858   7.398  0.2571  0.0785 -0.0562
    1W        W51764  23.948   4.998   3.549 -0.1232  0.2663  0.1886
    1W        W51765  17.702  20.708   1.619  0.0729 -0.1857  0.0619
    1W        W51766  23.367  26.737   7.694 -0.0985  0.2543 -0.0458
    1W        W51767  12.273   5.331   2.189 -0.2252 -0.0760  0.0756
    1W        W51768  24.349  25.557   6.551 -0.2105 -0.3301  0.0331
    1W        W51769  17.647  17.575   0.908  0.1209 -0.1816 -0.1812
    1W        W51770  15.323  12.308   6.975 -0.1226  0.2098 -0.0905
    1W        W51771  25.514  23.474   6.601 -0.4591 -0.1221 -0.0002
    1W        W51772  25.389  26.981   8.861 -0.1933  0.1745 -0.2879
    1W        W51773  21.011  26.983   8.358 -0.0078  0.1152  0.0483
    1W        W51774  26.230   9.003   1.371  0.1932 -0.1022  0.3438
    1W        W51775   1.870  24.896   8.161 -0.2203 -0.2508 -0.0627
    1W        W51776  15.586   3.835   0.080  0.3915 -0.1861 -0.1849
    1W        W51777   5.909   8.831   0.384 -0.2204 -0.1280 -0.0804
    1W        W51778   1.645   2.047   8.712 -0.1778  0.1439 -0.2376
    1W        W51779  11.042  29.872   0.012 -0.1044  0.0122 -0.1554
    1W        W51780  22.265   7.363   6.027 -0.1237  0.0379 -0.1842
    1W        W51781  16.520  10.281   7.525 -0.0088  0.0112 -0.0043
    1W        W51782   9.595   5.476   0.327  0.2448 -0.0850  0.1500
    1W        W51783   1.324  29.262   2.927  0.0765 -0.1374  0.2144
    1W        W51784   4.981   7.360   7.334  0.1660  0.0118 -0.1273
    1W        W51785   3.383   0.678   8.062 -0.0001  0.2147  0.0029
    1W        W51786  14.192  22.939   0.969 -0.0082  0.1544 -0.1695
    1W        W51787  26.832  16.795   0.834  0.3042 -0.1307 -0.2881
    1W        W51788   8.922  29.006   1.281  0.2026  0.0991 -0.0433
    1W        W51789  24.250  11.964   8.016 -0.0779 -0.4087 -0.2093
    1W        W51790  15.187   3.126   6.801  0.1893 -0.0633 -0.3456
    1W        W51791  11.194  15.966   7.011  0.0999 -0.0585 -0.0885
    1W        W51792   4.409  17.234   7.666  0.0538  0.2728 -0.1378
    1W        W51793   6.932  26.191   2.379 -0.1479  0.1062 -0.0905
    1W        W51794   1.601  28.706   2.697  0.1394  0.1966  0.0249
    1W        W51795   5.985  25.887   2.731  0.0143 -0.2167 -0.1740
    1W        W51796   0.619  25.383   8.404  0.4637 -0.0194 -0.0695
    1W        W51797   9.178   4.586   6.915 -0.0450 -0.3240  0.2723
    1W        W51798  16.789  15.158   1.325 -0.2279 -0.4396  0.0075
    1W        W51799  13.884  18.284   8.542  0.0978  0.3254 -0.1143
    1W        W51800  15.668   9.002   7.947  0.1800  0.1899 -0.1714
    1W        W51801   4.549  27.933   8.135  0.0773 -0.0312 -0.0285
    1W        W51802  15.190   7.499   7.611  0.0358 -0.1531  0.0806
    1W        W51803  29.622  29.730   3.251  0.0868  0.1234 -0.3360
    1W        W51804   9.003   8.856   6.494 -0.1514 -0.1213 -0.1627
    1W        W51805  22.918  14.628   0.893  0.0667 -0.3459 -0.4436
    1W        W51806  16.047   6.705   8.210  0.2551 -0.3359  0.0626
    1W        W51807  13.113  20.367   1.957  0.0382 -0.1973  0.2488
    1W        W51808  12.743  26.567   1.349 -0.1900 -0.0740  0.1781
    1W        W51809   4.739  24.695   2.635 -0.2260 -0.1108  0.0321
    1W        W51810  27.049   9.691   0.440  0.1280 -0.1245 -0.0077
    1W        W51811  20.036   8.446   0.668 -0.2909 -0.1579 -0.2363
    1W        W51812  10.981  10.385   7.143  0.1625 -0.1034 -0.3556
    1W        W51813   9.432   4.538   8.329 -0.1224 -0.0732  0.3430
    1W        W51814  23.101   3.460   2.248 -0.2161 -0.2145 -0.0630
    1W        W51815   6.828   9.201   0.900 -0.0120 -0.2169  0.2510
    1W        W51816   9.047   5.664   7.805 -0.1229 -0.3834 -0.0380
    1W        W51817  20.471  24.338   7.061 -0.3507 -0.0938 -0.0869
    1W        W51818  25.055  19.457   5.986  0.2234 -0.0626 -0.0113
    1W        W51819  21.503   1.496   0.703 -0.1425 -0.0228 -0.2956
    1W        W51820  29.229  17.257   1.065  0.0693 -0.0766  0.2551
    1W        W51821  12.218   2.607   1.309  0.1156 -0.0451 -0.3670
    1W        W51822  24.512  15.895   2.043  0.0599 -0.1310 -0.0207
    1W        W51823  10.647  25.179   2.320  0.0556 -0.1153 -0.1105
    1W        W51824  23.544  11.685   0.404 -0.3244  0.0100  0.4156
    1W        W51825  27.628   3.897   2.370  0.0521 -0.5223 -0.2832
    1W        W51826  28.762  28.711   2.866 -0.4905  0.0813  0.0502
    1W        W51827   9.269   3.405   1.448 -0.1344  0.1885  0.2156
    1W        W51828   9.541  22.162   9.268  0.2941  0.1090  0.0634
    1W        W51829  24.890  17.824   6.885  0.3286 -0.0763 -0.0807
    1W        W51830   3.110   7.660   8.744  0.0650 -0.0286  0.0389
    1W        W51831  17.900   4.117   6.241 -0.0582  0.0474  0.1739
    1W        W51832  25.486   8.673   1.701 -0.1706 -0.0082 -0.2681
    1W        W51833  14.682  19.400   2.138 -0.1404 -0.0781 -0.0281
    1W        W51834  10.203  19.899   7.163 -0.3971  0.0278 -0.0213
    1W        W51835  26.940   9.739   1.924 -0.4938 -0.2353  0.3164
    1W        W51836   3.625  11.073   9.243 -0.0852 -0.1674 -0.2147
    1W        W51837  27.899  24.152   7.902 -0.1784 -0.2158 -0.2275
    1W        W51838  20.231   0.538   7.485 -0.1198  0.0307 -0.0220
    1W        W51839  25.457  29.617   7.544 -0.0552 -0.0760 -0.1079
    1W        W51840   2.494  13.941   7.630  0.1017  0.0010 -0.2537
    1W        W51841  27.980   1.822   0.553  0.2184  0.1394  0.0132
    1W        W51842  24.877   9.667   6.202 -0.0132  0.2098  0.1519
    1W        W51843  12.625  12.869   9.047  0.4941 -0.0771 -0.1665
    1W        W51844  19.504  20.173   6.124  0.1689 -0.0684  0.4064
    1W        W51845  14.207   5.627   2.004  0.0615  0.0023 -0.4179
    1W        W51846   8.782  24.349   8.083 -0.0003  0.0903  0.0738
    1W        W51847  14.934   6.961   0.846 -0.0702 -0.1236  0.0165
    1W        W51848  18.316  30.085   7.572  0.0448  0.0444 -0.4859
    1W        W51849   6.902  20.372   7.642  0.1481  0.1001  0.1384
    1W        W51850  10.948   1.635   8.606  0.1002 -0.1521 -0.4462
    1W        W51851  28.795  25.899   6.398  0.0895 -0.1407  0.0474
    1W        W51852  24.809  10.199   1.586 -0.1576  0.0525 -0.1746
    1W        W51853  28.633  21.669   2.109  0.0781  0.0020 -0.0278
    1W        W51854   0.015  27.791   3.091  0.0934 -0.2776 -0.2652
    1W        W51855  10.406   3.031   1.992 -0.0285 -0.3588  0.0423
    1W        W51856  22.162  23.390   7.836  0.0778 -0.1990  0.0455
    1W        W51857   6.390   2.840   8.851  0.0153 -0.0082 -0.2037
    1W        W51858   6.142  27.245   6.014  0.0872  0.2390  0.0475
    1W        W51859  20.574  25.423   0.824  0.0921  0.2640  0.2547
    1W        W51860  25.023  29.739   0.940 -0.1425  0.1348  0.1488
    1W        W51861  12.877   0.436   8.657  0.1174 -0.0283 -0.0360
    1W        W51862  23.156   1.106   8.145  0.0584 -0.1286 -0.0869
    1W        W51863  14.027  19.233   8.962  0.0870  0.1163 -0.1534
    1W        W51864   3.145  28.614   8.018  0.1178 -0.1008 -0.1497
    1W        W51865  27.691   6.379   6.514 -0.1409  0.0756 -0.1103
    1W        W51866  17.347  17.229   0.536  0.3355  0.1181  0.0465
    1W        W51867   7.480  25.764   1.568  0.0065  0.0886  0.1620
    1W        W51868  24.066  23.190   7.767  0.1257  0.4992  0.1502
    1W        W51869  24.591  25.734   6.930 -0.0593  0.0985  0.2258
    1W        W51870  28.238   8.168   1.665 -0.0915  0.0214  0.2136
    1W        W51871  16.575  26.580   6.882 -0.2350 -0.6382 -0.0739
    1W        W51872   4.135  20.790   6.442  0.1159  0.1164  0.0535
    1W        W51873  19.185  10.158   1.197 -0.0890  0.1857 -0.1639
    1W        W51874  25.753  24.408   0.400 -0.0704 -0.1581 -0.2714
    1W        W51875   8.610   1.255   0.242  0.4923  0.1360  0.0728
    1W        W51876  15.840  20.737   8.275  0.2024 -0.1716 -0.1238
    1W        W51877  12.460  16.456   8.796 -0.1645  0.0346  0.0050
    1W        W51878  16.337   3.350   1.965  0.0397  0.2010 -0.2277
    1W        W51879  21.141   0.191   0.943 -0.1622  0.2567 -0.0560
    1W        W51880  25.988  25.839   7.779  0.1267 -0.0465 -0.2246
    1W        W51881  17.771  20.335   8.614 -0.3734  0.0752 -0.0340
    1W        W51882   2.385  24.410   1.416 -0.0722  0.0079  0.2934
    1W        W51883   5.120  23.324   7.842  0.3652 -0.0589  0.4029
    1W        W51884  28.492  20.464   8.253  0.0350  0.0432 -0.3724
    1W        W51885   2.629  13.059   8.680  0.0629 -0.1269 -0.0818
    1W        W51886   8.665   6.540   8.127  0.2977 -0.1389  0.2092
    1W        W51887  16.421  16.621   8.634  0.0974 -0.0453 -0.1327
    1W        W51888   4.989   7.547   8.628 -0.0283 -0.0691 -0.1875
    1W        W51889  18.783  19.988   0.826 -0.0063  0.0148  0.3350
    1W        W51890  20.533   1.236   1.730  0.0342 -0.2386 -0.1297
    1W        W51891  24.307  10.257   8.771 -0.2982 -0.1219 -0.1873
    1W        W51892  28.459  29.474   7.137  0.3350 -0.0720 -0.1915
    1W        W51893   4.220   3.356   2.820  0.1633 -0.1444  0.1663
    1W        W51894  20.558   5.487   0.947  0.1778  0.0122  0.0398
    1W        W51895   6.027  19.180   0.472  0.1500 -0.1496  0.0896
    1W        W51896   1.836   4.416   7.905 -0.2920  0.1477 -0.3088
    1W        W51897  10.398  21.836   7.745  0.2345  0.0375  0.1842
    1W        W51898   2.645   0.889   7.731  0.0082  0.1387  0.0532
    1W        W51899  28.881  13.288   1.680 -0.2163 -0.0413 -0.0261
    1W        W51900  14.442   0.717   8.069 -0.0929 -0.1708 -0.0867
    1W        W51901  24.768   6.568   3.385 -0.5136  0.1179 -0.1885
    1W        W51902  23.690  28.168   1.150 -0.0493 -0.2349  0.0030
    1W        W51903  17.635  20.213   7.943  0.0055 -0.2065 -0.3430
    1W        W51904  20.291  10.270   0.409  0.2378 -0.1065  0.2144
    1W        W51905   3.101   0.056   0.707  0.3526 -0.1807 -0.1158
    1W        W51906  10.789   9.447   0.076 -0.1239  0.2861  0.1367
    1W        W51907   7.426   8.320   1.153  0.1341 -0.1700  0.3321
    1W        W51908  21.488   0.320   2.701 -0.0233  0.2413 -0.1091
    1W        W51909  23.312  22.716   6.615  0.1145 -0.3480 -0.0288
    1W        W51910  13.365   2.240   2.198  0.0840  0.3809 -0.0100
    1W        W51911  14.430  29.346   6.452 -0.1358  0.5492 -0.3069
    1W        W51912   4.274  22.182   8.238  0.0736 -0.0732 -0.0260
    1W        W51913  12.226  22.688   6.516  0.1951 -0.3255  0.1941
    1W        W51914  18.518   3.235   2.209 -0.1036 -0.1931  0.2140
    1W        W51915  16.480  28.196   7.793 -0.1063  0.0050  0.2518
    1W        W51916  22.749  27.732   8.860 -0.2476 -0.0706 -0.3150
    1W        W51917   3.465   0.546   2.276  0.1966  0.0012 -0.0960
    1W        W51918   5.799  21.013   8.777  0.1455  0.1335 -0.0209
    1W        W51919  21.958   9.705   6.785  0.1365 -0.0812  0.1968
    1W        W51920  23.048   6.492   8.787 -0.2274  0.2151 -0.0344
    1W        W51921  19.351  24.492   8.721  0.1908  0.1027 -0.2294
    1W        W51922  10.244   1.524   2.255 -0.1336  0.2411 -0.1940
    1W        W51923   3.039  10.983   0.587 -0.1216  0.2956 -0.0839
    1W        W51924  10.960  18.187   7.842 -0.1855 -0.0965  0.0144
    1W        W51925  20.313  27.352   7.966 -0.1594 -0.2818 -0.5200
    1W        W51926  20.714  18.240   7.494 -0.1325 -0.1438 -0.3906
    1W        W51927  24.016  23.211   8.339 -0.3118  0.1507  0.4921
    1W        W51928  28.583  28.859   1.648 -0.1885 -0.0767 -0.3475
    1W        W51929  12.584  15.981   6.700 -0.1457 -0.0385  0.0888
    1W        W51930   9.638   6.350   7.374 -0.0405  0.2310 -0.1608
    1W        W51931  11.009  14.786   2.968 -0.1410  0.1130 -0.3365
    1W        W51932   6.661   8.896   2.414 -0.0972  0.1284  0.0414
    1W        W51933  19.466  28.101   0.291 -0.0668 -0.0367 -0.0780
    1W        W51934   2.554   2.800   8.623 -0.0445 -0.0118 -0.0840
    1W        W51935  11.910  20.574   7.297  0.0078 -0.0966  0.3496
    1W        W51936  20.860  10.072   1.270 -0.0122  0.0849 -0.1116
    1W        W51937   9.763   7.825   1.752 -0.0619 -0.0426  0.1220
    1W        W51938  24.616  25.998   3.076 -0.0974  0.0164 -0.3187
    1W        W51939  23.151  24.198   1.005 -0.2699  0.0589 -0.1214
    1W        W51940   2.332   1.381   2.864 -0.4660 -0.2340  0.1439
    1W        W51941  11.579  17.185   2.179 -0.1768 -0.0591  0.0201
    1W        W51942  10.367  15.469   9.098 -0.2320 -0.2230 -0.0057
    1W        W51943  14.819  23.889   1.485  0.0809  0.3218 -0.5903
    1W        W51944   6.334  21.032   7.203 -0.2824 -0.2949  0.0466
    1W        W51945  17.608  28.076   0.776 -0.0767 -0.2121 -0.2019
    1W        W51946  21.069  22.474   0.725  0.1521 -0.0839 -0.1755
    1W        W51947  19.679  13.965   7.953 -0.1355 -0.0806  0.1473
    1W        W51948  28.503  17.708   8.721 -0.0246 -0.3332 -0.0080
    1W        W51949   5.727   7.809   0.547 -0.1325  0.3315  0.0119
    1W        W51950  23.379   7.075   2.014 -0.0093  0.1490 -0.0643
    1W        W51951  28.980  16.319   8.325 -0.0137  0.0485 -0.1466
    1W        W51952  14.868  15.205   7.183  0.0772 -0.0098 -0.1583
    1W        W51953  10.584  23.636   7.307  0.0309 -0.0082 -0.3057
    1W        W51954  20.836  11.253   2.369  0.1915  0.1558  0.3058
    1W        W51955   8.923  12.607   0.219 -0.1477  0.2610  0.1035
    1W        W51956   0.343  16.149   7.788  0.0716  0.0368 -0.1626
    1W        W51957  14.199  15.239   1.208  0.2509  0.2167  0.2116
    1W        W51958  10.845   9.023   6.836 -0.0937 -0.1142  0.0999
    1W        W51959   7.478   1.112   1.443  0.2920 -0.1328  0.2376
    1W        W51960   9.595  24.888   0.127 -0.2579 -0.0893  0.1849
    1W        W51961  15.308   2.742   7.601 -0.4502 -0.2756  0.1187
    1W        W51962  10.256   6.634   9.221  0.0829  0.0154 -0.0826
    1W        W51963  21.820   8.818   7.778 -0.1646  0.0721 -0.1107
    1W        W51964  10.193  23.991   7.426 -0.1027  0.0634  0.3407
    1W        W51965  26.971  28.935   1.443 -0.1448 -0.0339  0.0867
    1W        W51966  28.120  20.428   0.685  0.2412 -0.1866 -0.0251
    1W        W51967  14.033   3.829   2.881 -0.0011  0.1655 -0.0700
    1W        W51968  23.870  10.392   1.778 -0.3174 -0.1379  0.1116
    1W        W51969  16.171  13.228   1.397  0.2841 -0.1218 -0.0224
    1W        W51970   1.140  16.349   8.470  0.0122  0.1242 -0.1217
    1W        W51971  29.985  30.030   8.098  0.1447  0.2359  0.2121
    1W        W51972  28.383  26.141   0.930  0.0764 -0.1582  0.0822
    1W        W51973  22.716  25.430   9.200 -0.0895 -0.2629 -0.0005
    1W        W51974   1.359   3.413   8.211 -0.3706 -0.3460 -0.0286
    1W        W51975  29.931  12.409   1.508  0.1130  0.0613 -0.2417
    1W        W51976  21.668  16.760   6.683 -0.0667  0.0169 -0.0140
    1W        W51977  10.205   2.072   2.625 -0.0014  0.1406  0.1359
    1W        W51978  28.050  20.614   6.333 -0.1244 -0.0095  0.1340
    1W        W51979   9.070  13.495   1.668 -0.0331 -0.0177  0.0130
    1W        W51980  10.464  16.889   1.722 -0.2868 -0.2464 -0.0769
    1W        W51981  23.761  20.629   1.055  0.0549 -0.0190  0.0911
    1W        W51982   4.160  12.777   8.839 -0.2518  0.3064  0.2775
    1W        W51983  18.358  17.495   0.025  0.0637 -0.0114 -0.0365
    1W        W51984  30.282  23.056   7.378 -0.0548  0.2160 -0.0101
    1W        W51985   0.878  17.313   9.104  0.0203  0.0246  0.2484
    1W        W51986   6.749  26.638   7.162  0.1145  0.0022 -0.0434
    1W        W51987   2.288  22.733   1.787  0.1022  0.1193 -0.1317
    1W        W51988  21.786  24.747   1.117 -0.0379  0.2513 -0.0678
    1W        W51989   2.761  27.192   0.209 -0.3865  0.1314 -0.1515
    1W        W51990   8.368  18.331   8.909 -0.1253 -0.3201  0.1878
    1W        W51991  16.907   9.168   7.741 -0.2599  0.1674 -0.2547
    1W        W51992  20.133  23.849   0.349  0.2411 -0.2721 -0.1398
    1W        W51993  29.946  13.345   9.147  0.0783 -0.2048 -0.1324
    1W        W51994  12.876  23.451   8.336 -0.1788 -0.1513  0.2782
    1W        W51995  26.912   9.784   6.139  0.1404  0.2604 -0.1228
    1W        W51996  19.581   5.280   7.433 -0.0161  0.0367  0.1248
    1W        W51997  18.567   4.000   7.974  0.0211  0.0006  0.4408
    1W        W51998  29.421   9.825   0.497 -0.1243  0.1159  0.4434
    1W        W51999  10.010  21.061   6.036  0.0839  0.0741 -0.0824
    1W        W52000  14.673  15.050   9.100  0.4006  0.1729  0.1631
    1W        W52001  12.162   8.830   1.547  0.2474  0.0994  0.1391
    1W        W52002  27.057   3.422   2.955 -0.0679 -0.0939  0.0246
    1W        W52003  21.954   4.988   0.518 -0.4890 -0.1322  0.2921
    1W        W52004  21.925  15.738   7.490  0.0329 -0.0834 -0.0823
    1W        W52005  23.118   8.409   7.307 -0.2567 -0.2622  0.1141
    1W        W52006  26.136  26.844   2.946  0.2692 -0.1711  0.2376
    1W        W52007   6.502   4.122   1.180 -0.0318  0.0225  0.0969
    1W        W52008  13.897  13.987   8.674 -0.1984 -0.0053  0.1225
    1W        W52009   1.251  28.483   7.994  0.2008 -0.2366  0.1281
    1W        W52010  27.137  15.340   9.206  0.0533 -0.0165 -0.0220
    1W        W52011  20.286   7.643   0.767 -0.4021  0.1370  0.0381
    1W        W52012  15.460  13.300   9.154 -0.0182 -0.0520 -0.0090
    1W        W52013  20.206   7.086   5.860  0.4341  0.1480  0.1801
    1W        W52014  12.123   4.182   7.475 -0.1281 -0.1357 -0.1175
    1W        W52015  28.386  16.266   7.007 -0.2335  0.0938 -0.1230
    1W        W52016  16.546  24.384   8.297  0.1357 -0.0366 -0.1193
    1W        W52017  24.268  20.114   9.104  0.1978  0.1367 -0.1226
    1W        W52018   1.447   6.800   2.232 -0.2846 -0.1451 -0.2615
    1W        W52019   2.692   9.872   8.076  0.0102  0.2178 -0.2266
    1W        W52020  28.794   5.856   8.843  0.0192  0.1401 -0.2923
    1W        W52021  29.327  28.077   0.261  0.3665  0.0211  0.0961
    1W        W52022  17.650  14.150   1.836 -0.0276 -0.1495 -0.0299
    1W        W52023  16.911   5.948   1.228  0.2667  0.0477 -0.0190
    1W        W52024  21.388  13.781   0.178 -0.2329 -0.1944  0.4094
    1W        W52025   6.818  21.027   8.405 -0.0755  0.1065 -0.2828
    1W        W52026  19.316   5.077   2.489 -0.1436 -0.2394  0.2280
    1W        W52027   1.263  12.160   0.203 -0.0261  0.2513  0.1931
    1W        W52028  23.849  10.058   8.899  0.0727 -0.3428  0.0243
    1W        W52029  12.035  27.727   8.181 -0.1541 -0.1161 -0.1905
    1W        W52030  10.108  11.181   6.741  0.1097 -0.1217  0.1592
    1W        W52031   2.308   9.816   0.155 -0.3986  0.0682  0.1570
    1W        W52032  15.459   8.043   1.310 -0.0007 -0.1843 -0.0011
    1W        W52033  17.632  12.314   2.365  0.0215 -0.3480  0.0250
    1W        W52034   0.580  12.056   0.827  0.0995 -0.2498  0.2154
    1W        W52035  15.372  20.444   8.075  0.0360 -0.0902  0.2410
    1W        W52036   1.207   3.421   0.431  0.0203 -0.1066  0.0047
    1W        W52037   4.481   1.364   1.004  0.1155  0.0146  0.0929
    1W        W52038  27.549  22.370   9.135  0.1802 -0.0423  0.0274
    1W        W52039  29.093  13.931   8.061 -0.1441 -0.2001  0.1911
    1W        W52040  18.062  22.695   7.199  0.4115  0.1872 -0.1750
    1W        W52041  10.257   9.119   0.684 -0.0426  0.1500  0.0259
    1W        W52042   6.812  13.759   7.330 -0.0246 -0.0965 -0.1285
    1W        W52043  16.388   7.657   0.956  0.1696 -0.2823 -0.2953
    1W        W52044  26.273   1.617   8.473 -0.3202  0.3030 -0.0031
    1W        W52045  27.748  18.630   8.162 -0.1319 -0.4818  0.0903
    1W        W52046  13.321   0.500   0.154 -0.2244  0.0013  0.3774
    1W        W52047  14.885  19.260   0.650  0.2348  0.0476  0.1359
    1W        W52048  20.330   4.838   7.779  0.0597  0.0294  0.0041
    1W        W52049   6.210   0.209   1.998 -0.4110 -0.4004 -0.0655
    1W        W52050   2.145  27.905   1.220  0.0961 -0.1158  0.1483
    1W        W52051   5.842  11.898   1.424 -0.1483  0.0696 -0.0935
    1W        W52052   0.639  20.271   8.794  0.0567  0.2144  0.0362
    1W        W52053  16.350  23.028   1.386  0.1333  0.0923 -0.0636
    1W        W52054  16.503   6.841   5.797 -0.0118  0.1618 -0.0888
    1W        W52055  25.674   6.412   8.784 -0.4286  0.0230 -0.1127
    1W        W52056  20.949   9.297   8.697 -0.0432  0.0259  0.2556
    1W        W52057   9.284  25.710   6.949  0.1320  0.1326  0.0964
    1W        W52058   4.761  18.866   6.406 -0.2406  0.2049 -0.0711
    1W        W52059   1.448  19.620   0.960  0.0733 -0.2938  0.0703
    1W        W52060  15.481   9.860   7.167  0.0221  0.3946 -0.0999
    1W        W52061  19.902  26.941   1.094 -0.2606  0.0444  0.1157
    1W        W52062  20.145  23.755   7.326  0.2662 -0.2593 -0.2599
    1W        W52063   5.516   9.856   6.771  0.0308 -0.1213 -0.0232
    1W        W52064  15.828  12.088   2.102  0.0265 -0.1672 -0.0256
    1W        W52065  13.247   6.131   6.726  0.0480  0.3128 -0.4170
    1W        W52066   1.318  26.369   9.087  0.0679 -0.1941 -0.0399
    1W        W52067  19.217  16.707   0.062 -0.2947  0.1497 -0.0061
    1W        W52068   2.346  14.766   8.191 -0.1022 -0.0303  0.1981
    1W        W52069  10.667  29.114   9.124  0.0758  0.5045 -0.0610
    1W        W52070  17.710   9.632   6.433  0.2581 -0.2020  0.0449
    1W        W52071   1.089  28.064   1.954 -0.1213 -0.1222  0.1866
    1W        W52072   0.872  14.626   0.769 -0.0941 -0.0884 -0.0417
    1W        W52073   4.397  17.264   6.781 -0.2837 -0.3291 -0.3148
    1W        W52074  26.367  22.735   1.166 -0.0138 -0.0742  0.0229
    1W        W52075   1.298  21.680   1.889  0.0517 -0.1247 -0.0062
    1W        W52076   1.597  22.529   0.683 -0.2933 -0.1233  0.0128
    1W        W52077   9.310  23.340   9.173  0.1642 -0.0993  0.4083
    1W        W52078  19.597  12.747   7.355  0.2781 -0.1138  0.1260
    1W        W52079   7.190  13.847   6.354  0.3577  0.2913 -0.3885
    1W        W52080   3.250  29.228   0.556  0.0122 -0.3947  0.0495
    1W        W52081  16.464  11.621   2.394  0.2160  0.0365  0.1368
    1W        W52082  27.211  16.885   7.142 -0.1114 -0.0951  0.0060
    1W        W52083  18.523  27.612   8.075 -0.1245 -0.0355  0.0636
    1W        W52084  19.702  13.222   7.266  0.2757  0.1183 -0.4471
    1W        W52085   1.893   6.372   6.833 -0.0944 -0.0692 -0.2791
    1W        W52086  24.632   3.541   7.787 -0.1763  0.4786 -0.3787
    1W        W52087   2.903  14.993   1.378 -0.0967  0.1129  0.1154
    1W        W52088   3.001  15.865   1.037  0.1604  0.1006 -0.5925
    1W        W52089  26.749   1.372   9.245 -0.4067 -0.0084  0.2744
    1W        W52090  28.096   3.457   7.742 -0.0186 -0.1872  0.0642
    1W        W52091   9.348  22.729   1.957 -0.0249  0.1643  0.1151
    1W        W52092   1.585  25.424   8.302  0.0958 -0.0238 -0.1510
    1W        W52093  28.345   4.198   1.613 -0.0237  0.1013 -0.0173
    1W        W52094  20.679  14.726   2.190  0.3950  0.3007 -0.2498
    1W        W52095   7.879   4.102   6.629  0.2404  0.1906 -0.0891
    1W        W52096  16.652  22.782   8.570  0.1379 -0.2507  0.1591
    1W        W52097  15.624  17.136   2.513  0.1473  0.1845  0.0039
    1W        W52098  24.383  19.651   9.212  0.1785  0.0985  0.1400
    1W        W52099  29.501  10.630   8.057  0.0793  0.1848 -0.2242
    1W        W52100   1.987  26.140   8.760  0.0668  0.0262  0.3094
    1W        W52101  27.662  21.118   6.991  0.0757  0.2305  0.1514
    1W        W52102   7.986   4.132   2.052  0.1106  0.1026 -0.1806
    1W        W52103  14.899   7.946   7.409 -0.1071  0.0670 -0.0962
    1W        W52104  20.463  22.184   6.963  0.0005 -0.2598 -0.0079
    1W        W52105   7.088  15.813   8.812  0.1084 -0.0451 -0.0988
    1W        W52106   2.881  22.484   7.946 -0.0308  0.0337 -0.1136
    1W        W52107  20.184  27.949   1.489  0.1594 -0.3778 -0.3386
    1W        W52108   4.494   7.923   7.294  0.1571  0.0652  0.4589
    1W        W52109  10.217  17.420   6.757 -0.1935  0.1382  0.0231
    1W        W52110  18.436  14.448   1.268  0.2635  0.0769  0.3219
    1W        W52111   0.466  20.837   7.593 -0.1438  0.1312  0.1286
    1W        W52112  17.754  30.149   1.098  0.1927  0.0523 -0.3363
    1W        W52113  15.746   9.405   6.800 -0.2157  0.0345 -0.1308
    1W        W52114  20.953   6.747   6.578 -0.2124 -0.0667  0.0707
    1W        W52115   0.462  30.278   0.267  0.0639 -0.0450  0.1464
    1W        W52116  10.523   8.543   3.355 -0.1545  0.2385  0.0157
    1W        W52117  25.010  24.144   0.832  0.1967 -0.1315  0.0492
    1W        W52118   6.442  29.030   2.381  0.2827 -0.1123  0.0591
    1W        W52119  16.327  20.961   0.443 -0.0326  0.0096  0.0568
    1W        W52120  13.910   8.709   0.961  0.1819  0.0169  0.0733
    1W        W52121   6.451   8.592   1.527  0.1800  0.2857 -0.1819
    1W        W52122  19.739  14.484   1.876  0.2056 -0.0408  0.2477
    1W        W52123  19.310  11.815   6.972  0.2092  0.1215  0.1779
    1W        W52124  29.873  24.901   9.235 -0.1155 -0.1680 -0.2916
    1W        W52125  15.712   4.182   2.617  0.1853  0.2032  0.0512
    1W        W52126  25.414  24.312   1.832 -0.0277  0.0552  0.0965
    1W        W52127  10.086   3.820   1.698 -0.2795  0.1061  0.1671
    1W        W52128   3.001   5.523   2.379 -0.1807  0.0937  0.0538
    1W        W52129  28.352   6.772   1.942  0.2540 -0.0609  0.1567
    1W        W52130  12.334   6.528   8.490  0.2314  0.0714  0.0995
    1W        W52131   8.484  12.778   8.534  0.0876 -0.2671  0.0488
    1W        W52132   1.751  19.606   0.096  0.4981  0.0004  0.1396
    1W        W52133   3.697  10.059   1.636  0.0729 -0.1261 -0.0950
    1W        W52134   6.766  24.894   8.631 -0.0162 -0.0811  0.1886
    1W        W52135  10.127  12.106   2.996 -0.1282  0.3800 -0.2100
    1W        W52136  12.169  17.739   8.323  0.0009  0.1076 -0.2806
    1W        W52137  20.195  10.111   5.935 -0.1254 -0.0128 -0.0991
    1W        W52138  18.932  26.597   3.180 -0.1050  0.0729 -0.0958
    1W        W52139  11.370   5.736   2.064 -0.2485  0.0466  0.1568
    1W        W52140   0.950   7.728   0.260  0.3223 -0.0559  0.0096
    1W        W52141   7.038   2.752   2.665 -0.0940 -0.1497 -0.3195
    1W        W52142  23.127  16.016   7.019  0.3070 -0.0648 -0.2603
    1W        W52143   2.171   9.704   0.685 -0.0074  0.2926  0.0138
    1W        W52144   8.520  21.078   6.390 -0.2584 -0.1499 -0.0552
    1W        W52145  21.995  13.540   1.396 -0.1894  0.1290 -0.2337
    1W        W52146   1.422   3.219   3.713 -0.1058 -0.0739 -0.2111
    1W        W52147  24.289   1.593   2.035 -0.0181  0.0421 -0.0712
    1W        W52148  28.917  26.483   2.890  0.1593 -0.0440  0.1155
    1W        W52149  22.089  10.497   9.201 -0.0044  0.0482  0.0190
    1W        W52150   3.715   2.489   7.935 -0.1418  0.1832 -0.0196
    1W        W52151  17.082  10.300   6.968 -0.0740  0.2179  0.2825
    1W        W52152   2.627   7.520   0.906 -0.2983 -0.2459 -0.2091
    1W        W52153  15.006  30.023   0.206 -0.1710 -0.3023 -0.0345
    1W        W52154  18.881   2.364   1.912  0.0123  0.1676 -0.0517
    1W        W52155   8.345   3.377   7.392  0.2310  0.1485 -0.2386
    1W        W52156  16.634  16.293   0.228  0.1784 -0.0284 -0.1804
    1W        W52157   0.622  29.977   8.233 -0.1737  0.1575  0.1367
    1W        W52158   8.187  27.867   2.451  0.0037  0.1474  0.2231
    1W        W52159  19.620   5.976   1.172  0.0695 -0.0458  0.1433
    1W        W52160  28.694  28.352   6.829  0.1277  0.0594 -0.0746
    1W        W52161  18.988  20.425   1.902  0.0564  0.0458  0.4171
    1W        W52162   8.574   1.198   2.672 -0.2009  0.1141  0.1577
    1W        W52163   0.963   5.225   8.418  0.1526 -0.0648 -0.3490
    1W        W52164   1.266  22.266   7.442  0.2228 -0.3959  0.3148
    1W        W52165  25.749  12.316   8.201 -0.0260  0.0137  0.0043
    1W        W52166  21.402  12.960   0.277 -0.3727 -0.1428 -0.2113
    1W        W52167   5.305  15.042   9.089  0.2481 -0.1267 -0.0961
    1W        W52168  20.370  13.340   8.846  0.1324 -0.2897 -0.3224
    1W        W52169  25.329  28.742   7.313  0.3852 -0.1002  0.2565
    1W        W52170   0.859   2.114   1.167  0.2094  0.2377  0.0298
    1W        W52171  18.506  14.866   7.907  0.0455  0.0585  0.0861
    1W        W52172   8.360  21.685   0.744 -0.2091 -0.0100 -0.0133
    1W        W52173   5.982   4.195   7.698 -0.1116  0.1662  0.1204
    1W        W52174   8.405  16.136   8.697 -0.3047 -0.0873  0.0826
    1W        W52175  17.479  26.871   6.901  0.2710  0.4867 -0.0417
    1W        W52176  16.728  19.892   7.663  0.0329  0.0105 -0.2595
    1W        W52177   2.497   5.691   6.877 -0.0617 -0.0984  0.1007
    1W        W52178  28.236  28.399   7.879 -0.0118 -0.2969 -0.3226
    1W        W52179  13.757  12.271   0.397  0.0695 -0.0312  0.1637
    1W        W52180  25.058   9.582   8.117 -0.1980 -0.3757 -0.2348
    1W        W52181  12.213  23.653   9.121  0.0853  0.0709  0.2541
    1W        W52182  13.387   4.879   6.813 -0.0812  0.1222 -0.2865
    1W        W52183  21.179  14.062   1.631  0.1135 -0.0898  0.1840
    1W        W52184   7.141  23.564   7.536 -0.0659 -0.1834 -0.0483
    1W        W52185   8.212  26.332   8.214 -0.0221 -0.1212 -0.1377
    1W        W52186  21.116  24.412   6.932 -0.0843 -0.2037 -0.1930
    1W        W52187  28.871  24.948   8.924 -0.0815 -0.0768  0.1814
    1W        W52188   8.655  20.080   8.798  0.2010 -0.3350 -0.0738
    1W        W52189  14.787  23.926   6.024  0.0447  0.3061  0.2814
    1W        W52190  12.549   1.844   2.309  0.1710  0.0132 -0.0392
    1W        W52191  20.284   7.811   6.003  0.0956  0.0638 -0.0054
    1W        W52192  17.337   4.144   0.362 -0.7567 -0.1638 -0.2491
    1W        W52193   0.639   3.341   0.126 -0.2329 -0.0883  0.4974
    1W        W52194  27.674   4.572   7.872  0.1443 -0.2913  0.3760
    1W        W52195   4.277  14.597   6.878  0.3938  0.0978  0.2264
    1W        W52196  12.809   8.129   7.579  0.1966  0.2751  0.0953
    1W        W52197   6.500  13.326   7.446  0.0796 -0.2421 -0.2407
    1W        W52198   1.108  23.597   8.006 -0.1882  0.1778 -0.2530
    1W        W52199  26.138  21.572   0.406  0.0111  0.4432  0.1921
    1W        W52200  29.422   5.211   2.483  0.3310  0.0026  0.2844
    1W        W52201  13.712  24.360   1.114  0.0715  0.1994 -0.1236
    1W        W52202   7.328  28.002   1.028 -0.3981 -0.2277 -0.2407
    1W        W52203  27.063  25.318   3.163  0.1770  0.2153 -0.1150
    1W        W52204  16.120  27.539   7.260  0.0244 -0.2860  0.1742
    1W        W52205  21.093  13.890   8.429  0.0390 -0.1849 -0.1252
    1W        W52206  17.137   9.573   2.656  0.0750 -0.1187 -0.0503
    1W        W52207   4.145  19.654   0.466 -0.0820 -0.0230 -0.2198
    1W        W52208   4.204  30.170   1.464 -0.0256 -0.0815 -0.0313
    1W        W52209   0.360   3.172   7.677 -0.2327  0.0538 -0.1336
    1W        W52210  10.985  26.764   8.222 -0.2552 -0.1275  0.1650
    1W        W52211  21.504  22.213   0.665  0.4114  0.1239 -0.0367
    1W        W52212  12.919  29.955   0.094 -0.0814  0.1714  0.0436
    1W        W52213   0.256  24.004   7.586 -0.2874  0.0215 -0.2379
    1W        W52214  17.664  24.166   5.940  0.0016  0.1429 -0.0663
    1W        W52215   0.602  28.506   3.446  0.0173  0.0345 -0.0693
    1W        W52216  17.382  12.796   0.285 -0.0039 -0.3532  0.0665
    1W        W52217  18.050   5.964   0.484 -0.2562 -0.2421 -0.0696
    1W        W52218  18.074  17.449   1.649  0.0760 -0.1023 -0.0202
    1W        W52219  16.140   9.111   1.029 -0.0948 -0.1418 -0.0746
    1W        W52220  18.061  24.225   2.697 -0.0909 -0.1941 -0.0598
    1W        W52221   4.097   4.790   2.710  0.0870 -0.2330  0.2473
    1W        W52222  27.076   0.191   3.997  0.1215  0.2646  0.0279
    1W        W52223  26.817  29.529   8.916 -0.0233 -0.0232 -0.0104
    1W        W52224  14.864  15.470   0.058 -0.0523  0.2229  0.0375
    1W        W52225  23.552  19.951   0.386 -0.0427 -0.0460 -0.0513
    1W        W52226   3.014  24.638   0.709 -0.0945 -0.0475  0.0587
    1W        W52227  12.147   8.806   1.017  0.1266  0.1073 -0.0166
    1W        W52228   2.928  25.000   8.631  0.1156  0.0511  0.1328
    1W        W52229  16.293   9.069   1.905  0.1114 -0.2393 -0.2452
    1W        W52230  24.675   6.075   3.398  0.2228 -0.0222  0.1854
    1W        W52231  24.800   2.962   3.944  0.0344  0.1838 -0.2519
    1W        W52232   2.455   8.282   6.147 -0.2417  0.0723 -0.2112
    1W        W52233  12.053  26.488   0.591 -0.2357  0.0960  0.0278
    1W        W52234  21.283  17.887   7.580 -0.1564  0.0715  0.2375
    1W        W52235   1.536  18.611   7.130 -0.1953  0.2308  0.1522
    1W        W52236  25.684  24.704   1.630  0.2872  0.0913  0.2473
    1W        W52237  23.800   1.379   1.230 -0.0552 -0.1683  0.0148
    1W        W52238  28.559  19.473   9.134 -0.0096  0.0011 -0.2770
    1W        W52239   5.472   0.440   0.738 -0.0856 -0.1895  0.3535
    1W        W52240  27.002  20.066   1.636 -0.0222  0.1106  0.0408
    1W        W52241   4.085  25.144   2.916 -0.2803  0.0767 -0.3314
    1W        W52242   0.042  27.529   8.013  0.1604  0.1188  0.1054
    1W        W52243  21.098   2.326   1.629  0.0289  0.2095  0.1455
    1W        W52244  24.161  16.813   1.956  0.0168 -0.2920 -0.0853
    1W        W52245  27.896   1.260   2.185 -0.0533  0.1242 -0.0376
    1W        W52246   0.964   0.554   8.366  0.1104  0.1968  0.2081
    1W        W52247   0.804  28.366   0.599  0.1381 -0.1459 -0.1130
    1W        W52248   7.793   5.483   8.129  0.2263 -0.1311  0.0814
    1W        W52249  11.653  22.867   2.520  0.1411 -0.1396  0.0908
    1W        W52250   4.647  14.326   7.917  0.0912  0.0719  0.1388
    1W        W52251  20.209  11.612   7.351  0.2166 -0.0340  0.7548
    1W        W52252   7.965   5.169   7.747 -0.2140 -0.1224 -0.2320
    1W        W52253  14.093  13.659   0.211 -0.0873  0.1250  0.2120
    1W        W52254   1.835   2.293   1.247  0.2232 -0.0418 -0.0310
    1W        W52255  21.503   6.334   8.104  0.0932  0.2006  0.2823
    1W        W52256   3.809  29.739   3.503 -0.3241  0.0450 -0.0616
    1W        W52257  14.857  11.583   9.157  0.1361 -0.0292  0.1347
    1W        W52258  12.120  19.344   1.617 -0.5261  0.1267  0.1807
    1W        W52259  26.621  28.507   0.521 -0.1394 -0.0566 -0.3732
    1W        W52260  16.963  10.965   7.839 -0.2262 -0.0357  0.1914
    1W        W52261   7.259  24.282   8.534  0.0248  0.0817 -0.2518
    1W        W52262  11.410  24.848   1.101 -0.3391 -0.2604  0.1321
    1W        W52263   8.953   9.223   6.153 -0.0836  0.2869 -0.0630
    1W        W52264  29.589   5.621   6.623  0.2238 -0.1450 -0.0031
    1W        W52265  10.708  28.765   8.175 -0.1906 -0.3635  0.0674
    1W        W52266   6.239  17.231   0.791  0.2262  0.1273 -0.2709
    1W        W52267   4.457  29.738   7.000  0.2713 -0.0215 -0.1767
    1W        W52268  21.179  22.963   7.693 -0.1293  0.0685  0.0110
    1W        W52269  18.852  19.119   8.123 -0.0222 -0.0126  0.1033
    1W        W52270   3.483   9.988   7.582  0.1891  0.0242 -0.0929
    1W        W52271  26.157   3.831   3.309  0.3759  0.0267  0.1816
    1W        W52272  24.077  19.501   6.023  0.2832  0.1723  0.0172
    1W        W52273  29.730   8.470   8.264  0.2030  0.2480  0.1972
    1W        W52274   2.759  17.796   7.566 -0.1481 -0.1614  0.2661
    1W        W52275  10.719   4.999   9.163 -0.1175  0.2375 -0.2342
    1W        W52276  23.490  29.907   3.199 -0.0622 -0.0538 -0.0833
    1W        W52277  10.918   6.701   0.528 -0.0226 -0.2956  0.3459
    1W        W52278  19.745   5.332   7.948 -0.2117  0.0150 -0.1451
    1W        W52279  20.545  26.796   0.997  0.2379 -0.0603  0.4228
    1W        W52280  10.403  15.100   0.177  0.0998 -0.2841 -0.1048
    1W        W52281   2.671   4.951   6.662  0.2218 -0.2947 -0.1316
    1W        W52282  11.725  14.394   0.468 -0.0702  0.0657  0.0444
    1W        W52283   1.515  26.294   8.622  0.1556 -0.1002  0.0895
    1W        W52284  12.739  28.369   8.134 -0.3527  0.0022 -0.1847
    1W        W52285  27.284   8.453   2.039  0.0694  0.1226  0.2883
    1W        W52286   8.557   6.897   0.427  0.0356  0.0411 -0.0704
    1W        W52287  16.963  23.835   0.133  0.2221  0.0261 -0.0644
    1W        W52288  10.252   9.410   8.490 -0.0965 -0.0790 -0.1860
    1W        W52289  22.987   9.450   0.459  0.0162 -0.2884  0.2571
    1W        W52290  21.611  28.288   2.370 -0.1619  0.0460  0.1832
    1W        W52291  13.877  17.803   8.692 -0.1003  0.0761  0.0386
    1W        W52292  14.000  12.348   6.845 -0.3269  0.0401 -0.0262
    1W        W52293  21.793  13.979   1.074  0.0181  0.1356  0.1791
    1W        W52294   3.196   9.944   8.015 -0.0949 -0.1078 -0.1503
    1W        W52295   7.629  10.146   6.519 -0.1353  0.0298 -0.1828
    1W        W52296   8.312  10.605   7.204  0.0431 -0.2625  0.1140
    1W        W52297  14.269  10.495   8.305  0.1166 -0.1405 -0.4798
    1W        W52298   3.061   6.855   1.311 -0.0105  0.2357  0.1133
    1W        W52299   0.241  15.357   7.928 -0.0468  0.0883  0.2584
    1W        W52300   4.827   9.434   1.437  0.2535  0.2569  0.1035
    1W        W52301   2.812  18.620   0.843  0.1449 -0.0604 -0.0103
    1W        W52302  26.961   3.285   4.240  0.3172  0.3905 -0.0664
    1W        W52303   8.176   4.156   7.883 -0.2213  0.1866  0.0497
    1W        W52304  17.220  14.232   7.757 -0.2095 -0.0897 -0.0104
    1W        W52305  14.201  20.004   8.789  0.0065 -0.2758 -0.1060
    1W        W52306   0.398   0.927   3.178 -0.5502  0.2457 -0.1710
    1W        W52307  17.222   8.696   7.605  0.0246 -0.4272 -0.2909
    1W        W52308  27.886  25.815   7.943 -0.1337 -0.0788  0.0203
    1W        W52309   0.052  18.782   0.478  0.0435 -0.1703  0.2251
    1W        W52310  20.410  28.980   1.202  0.2541 -0.5178  0.0610
    1W        W52311   3.251  18.237   8.080  0.0183  0.0093 -0.2463
    1W        W52312  12.453  10.036   2.800 -0.1872 -0.1655 -0.0402
    1W        W52313  26.325  15.166   6.445  0.0258 -0.2727  0.3670
    1W        W52314  16.005  23.570   3.090 -0.2570 -0.0900  0.1375
    1W        W52315   1.306   7.505   7.837  0.1622 -0.3610  0.2741
    1W        W52316  26.056   5.968   8.756 -0.0020  0.3102 -0.1653
    1W        W52317  22.518  21.180   9.068  0.1293 -0.1337  0.0019
    1W        W52318  25.941  29.159   0.070 -0.0675 -0.1046 -0.1436
    1W        W52319  21.030   2.648   2.466 -0.2142 -0.1485 -0.1035
    1W        W52320   4.863  25.607   6.471 -0.0699  0.1983  0.1581
    1W        W52321  12.231   6.880   0.299  0.2343 -0.2181  0.0487
    1W        W52322   2.060  28.651   1.854  0.0806 -0.0285  0.1879
    1W        W52323  11.436  16.097   7.817  0.2876  0.0472 -0.2990
    1W        W52324  19.996  30.178   2.658  0.1017  0.2687  0.0042
    1W        W52325  23.880  26.385   0.684 -0.4187  0.1854  0.0333
    1W        W52326  27.676  16.687   7.247  0.1856 -0.0071 -0.4013
    1W        W52327  11.028  20.375   8.498 -0.1007 -0.1683 -0.0125
    1W        W52328   0.517   7.778   2.202  0.0203 -0.0383  0.2469
    1W        W52329  19.120  13.151   6.824 -0.1091  0.0461 -0.0364
    1W        W52330   2.883  19.919   1.226  0.1523  0.1910 -0.2659
    1W        W52331  25.467  20.749   7.826 -0.1905 -0.0371 -0.1656
    1W        W52332  24.689  29.519   1.468  0.0262  0.4759 -0.1067
    1W        W52333   6.195   3.083   2.878 -0.3606 -0.0668  0.2617
    1W        W52334  14.808   6.563   1.086 -0.0841 -0.1582  0.3578
    1W        W52335   4.682   8.796   2.087 -0.0723 -0.2788 -0.1688
    1W        W52336  27.030  22.041   9.059 -0.3019 -0.1636 -0.2679
    1W        W52337  11.251  22.657   6.696  0.1604  0.0188  0.3305
    1W        W52338  23.408  13.828   6.586  0.0172 -0.2826  0.1408
    1W        W52339  18.932  25.086   8.174  0.1775  0.2187  0.1883
    1W        W52340  12.042  22.320   0.473 -0.3729  0.2043  0.1498
    1W        W52341  24.501   1.416   8.700 -0.0215 -0.1207  0.2465
    1W        W52342  20.716   3.127   3.202 -0.3537 -0.0868 -0.0797
    1W        W52343   7.099  27.465   0.083 -0.0012 -0.1100  0.1728
    1W        W52344  14.765  22.192   8.787  0.1238 -0.0306  0.2464
    1W        W52345  16.743   7.298   7.507  0.2145  0.3608  0.2779
    1W        W52346  17.842  15.909   7.866  0.0256  0.0989 -0.4365
    1W        W52347  21.252  13.636   2.228  0.1461 -0.1322  0.1864
    1W        W52348  20.662  24.504   0.850 -0.0853  0.0892  0.0385
    1W        W52349  13.066   8.046   0.937  0.0981  0.0299 -0.0178
    1W        W52350  26.672   3.523   1.581  0.1001 -0.2246  0.3542
    1W        W52351  22.442  20.603   1.861  0.1924 -0.2453  0.1514
    1W        W52352  14.977   2.688   8.317 -0.2958 -0.2717 -0.3007
    1W        W52353  26.098   8.263   7.405  0.2676 -0.0169 -0.0531
    1W        W52354   5.806   9.191   9.007  0.3246  0.1697  0.0339
    1W        W52355  22.742   0.941   8.463 -0.0109 -0.1239 -0.3686
    1W        W52356   9.370  23.513   6.585 -0.3345  0.1573 -0.2172
    1W        W52357  29.621   3.600   8.176 -0.3508  0.4438  0.0812
    1W        W52358  10.440   6.902   0.411 -0.1241 -0.0306  0.3149
    1W        W52359  29.975  27.267   7.885  0.1362 -0.3139 -0.1437
    1W        W52360  16.114   1.901   1.304  0.0423 -0.4970  0.1228
    1W        W52361  23.879   1.469   7.403  0.1091  0.1342 -0.1657
    1W        W52362   6.538  24.398   0.293  0.1107 -0.2819  0.0124
    1W        W52363  15.603   4.694   5.832  0.0823 -0.2024 -0.2516
    1W        W52364  27.036  23.634   7.894  0.0396  0.0354  0.0300
    1W        W52365   6.303   0.415   8.591 -0.2806 -0.1276  0.0144
    1W        W52366   7.655   4.854   2.959 -0.3459 -0.3603  0.0108
    1W        W52367  13.237  13.662   2.691  0.0837  0.0619 -0.0611
    1W        W52368   8.636  11.015   7.446  0.0312 -0.1521 -0.1372
    1W        W52369  10.738   6.582   0.075  0.2390 -0.1822  0.1475
    1W        W52370   4.269  25.700   6.926  0.0717 -0.2392 -0.4602
    1W        W52371  15.967   7.455   1.773 -0.0242  0.2452 -0.0170
    1W        W52372   4.955   6.361   7.448 -0.0936  0.1498  0.2675
    1W        W52373  22.865   1.126   6.326  0.1277  0.0190 -0.1767
    1W        W52374  17.456  23.178   8.228 -0.2932  0.0234  0.0847
    1W        W52375   6.452   8.965   1.959 -0.0808  0.1574  0.1913
    1W        W52376  11.104  12.038   0.053 -0.1734 -0.2039  0.3451
    1W        W52377  23.633  22.329   6.646 -0.0885  0.1916  0.0975
    1W        W52378   2.506   0.182   1.927 -0.2133 -0.0189 -0.0843
    1W        W52379  21.476  28.432   0.026 -0.2227  0.3264 -0.2262
    1W        W52380   2.279   0.070   7.279 -0.1546  0.2587 -0.2251
    1W        W52381   5.145  20.759   8.909  0.1517  0.0503 -0.1839
    1W        W52382  28.132  13.053   7.888 -0.2111  0.4535  0.0409
    1W        W52383  24.670   2.654   8.619  0.1255 -0.1388  0.2837
    1W        W52384  12.873  21.586   1.488  0.0884  0.1818 -0.1329
    1W        W52385   6.318  23.446   6.872  0.0368 -0.0967  0.1524
    1W        W52386  14.832  14.742   8.196 -0.3950  0.0156  0.1383
    1W        W52387  21.998   1.566   1.942 -0.1231 -0.2296  0.0907
    1W        W52388  14.195   9.193   8.476  0.1156  0.0068 -0.0521
    1W        W52389   9.837  25.061   2.645 -0.0387  0.0206 -0.0259
    1W        W52390  10.681   2.142   2.919 -0.0401  0.3312 -0.1918
    1W        W52391  28.518   5.449   0.963 -0.1541  0.1828  0.1681
    1W        W52392  23.336  15.914   0.236 -0.2525 -0.1217 -0.0168
    1W        W52393  11.931   4.518   7.054 -0.1690  0.0423 -0.0502
    1W        W52394  12.655  19.218   8.046 -0.2910 -0.1962  0.0816
    1W        W52395  11.300  15.099   9.020 -0.1505 -0.0308  0.0123
    1W        W52396  20.116  13.966   8.176  0.0310 -0.2019  0.2946
    1W        W52397  26.464  18.188   0.374  0.1981 -0.0937 -0.0335
    1W        W52398  20.363  19.564   8.353  0.0255 -0.1916 -0.1206
    1W        W52399  17.444  30.307   7.718 -0.1190 -0.1054  0.2406
    1W        W52400   3.636  17.134   8.747 -0.1696  0.3259  0.1001
    1W        W52401  13.633   1.155   3.015  0.4625 -0.0052 -0.2849
    1W        W52402  18.731  28.448   1.702 -0.2274 -0.0879 -0.2014
    1W        W52403  11.953   6.633   2.193 -0.0198  0.1072 -0.2506
    1W        W52404   6.822  20.176   0.343  0.1648  0.1707 -0.0073
    1W        W52405  20.361  26.430   0.100  0.0806 -0.1326 -0.0370
    1W        W52406  12.684  16.166   7.213  0.0506  0.1912 -0.1444
    1W        W52407   3.655  18.339   0.631 -0.1125  0.0619 -0.2586
    1W        W52408  18.051  11.851   8.592 -0.0732 -0.0806 -0.1786
    1W        W52409   0.105   7.409   8.734  0.1230 -0.1835  0.1934
    1W        W52410  22.609  13.638   6.104 -0.1424 -0.2729 -0.1560
    1W        W52411  27.915  20.109   0.316  0.0002 -0.1154  0.0144
    1W        W52412   2.550  13.114   0.375  0.1229  0.0481  0.1740
    1W        W52413  14.810   3.891   6.991 -0.2322  0.0442 -0.0058
    1W        W52414  14.022  19.095   6.652  0.0946 -0.0523  0.2230
    1W        W52415  20.355   9.022   6.766 -0.1603  0.0520  0.0337
    1W        W52416   9.377   6.644   7.105 -0.2099 -0.0125  0.0849
    1W        W52417  26.606  24.519   0.061  0.1796  0.0655 -0.3685
    1W        W52418   7.470  26.705   8.366 -0.0647  0.0763  0.2517
    1W        W52419  19.886   6.892   0.771  0.1327  0.1843  0.3428
    1W        W52420  17.372  18.439   2.721  0.2219  0.0160 -0.1384
    1W        W52421  29.997  11.972   7.540  0.0635  0.2564  0.1447
    1W        W52422  19.918  16.422   7.818 -0.2820  0.2998  0.0694
    1W        W52423  22.873   7.165   2.357 -0.1678  0.2003 -0.1045
    1W        W52424  18.275  16.018   6.042  0.2059  0.1668 -0.0555
    1W        W52425   1.170  14.876   9.067  0.2413  0.0876 -0.1954
    1W        W52426   7.094  22.892   0.353 -0.3284  0.3350  0.0884
    1W        W52427   1.662  11.454   9.261  0.0226 -0.2077  0.1024
    1W        W52428  17.264  24.610   1.930  0.0130 -0.2933  0.1094
    1W        W52429  21.841  21.631   6.174  0.1576  0.1863  0.1900
    1W        W52430  26.862   8.185   1.877  0.0820 -0.0613  0.2609
    1W        W52431  11.227  29.990   7.635 -0.2588 -0.1080  0.0681
    1W        W52432  18.982  13.286   1.682  0.1558  0.0937 -0.1498
    1W        W52433   1.844  15.143   6.914  0.2592  0.1010  0.2111
    1W        W52434  28.064   0.063   3.117  0.0030  0.0948 -0.2283
    1W        W52435   9.982  28.291   1.563  0.3754 -0.3053 -0.2099
    1W        W52436   0.127  23.036   6.835 -0.2849 -0.0228 -0.1282
    1W        W52437  24.494  25.659   2.303 -0.2089  0.0878  0.0536
    1W        W52438  28.843  27.955   3.280  0.1354 -0.0971 -0.2648
    1W        W52439  21.648  13.345   0.443  0.1483 -0.1428 -0.0268
    1W        W52440  10.392  25.271   1.816 -0.1027  0.0539  0.1612
    1W        W52441  17.170  22.793   1.151 -0.1191 -0.2566  0.0456
    1W        W52442  23.886   7.093   7.661 -0.0733 -0.3267  0.1210
    1W        W52443  13.110  14.340   7.460 -0.0172  0.1039 -0.0544
    1W        W52444  26.216   2.651   8.365 -0.1017  0.0259 -0.1137
    1W        W52445  17.936   4.123   1.625  0.0628  0.1803 -0.0141
    1W        W52446  16.132  24.300   0.992  0.0222  0.1920 -0.0011
    1W        W52447   3.401   9.244   7.391 -0.1444 -0.1613 -0.1486
    1W        W52448   3.638  28.324   3.056 -0.3391  0.0830  0.1406
    1W        W52449  26.254  26.066   8.302  0.3694 -0.1591  0.2044
    1W        W52450  28.288  28.802   8.314  0.1534 -0.2146  0.0082
    1W        W52451  18.875  25.300   2.312  0.2745  0.0087  0.2075
    1W        W52452  25.003  15.020   7.352  0.1036  0.3294  0.0480
    1W        W52453  21.985   3.617   8.677  0.0228  0.1536 -0.2516
    1W        W52454   4.867  25.108   2.368 -0.0326  0.4222  0.2196
    1W        W52455  25.369  11.865   8.830  0.1743 -0.1644  0.2599
    1W        W52456  15.095  28.560   3.473  0.1148 -0.0424  0.0375
    1W        W52457  20.528  14.795   8.329  0.0595 -0.2407  0.2756
    1W        W52458   2.190  26.578   3.355 -0.2967  0.2681  0.0794
    1W        W52459  14.808   2.232   8.225  0.3140  0.3366 -0.2822
    1W        W52460   7.987  21.766   8.280  0.2285  0.1236  0.3082
    1W        W52461   3.927  26.761   1.337  0.0745  0.2311 -0.1682
    1W        W52462  25.022   1.320   8.690  0.0019  0.2277 -0.2366
    1W        W52463   8.498  24.861   0.686 -0.0527 -0.2013  0.1231
    1W        W52464   3.155   3.736   1.395  0.2553 -0.1646 -0.3179
    1W        W52465   1.258   0.052   3.394 -0.0470  0.0505 -0.0749
    1W        W52466   8.840   1.615   2.352 -0.3177 -0.0575  0.5048
    1W        W52467  16.153  27.095   0.353  0.2518  0.3102  0.0435
    1W        W52468  24.502   4.865   3.011  0.0452 -0.0064 -0.0259
    1W        W52469  20.579  18.697   8.804  0.2724  0.2591 -0.2493
    1W        W52470   8.285   6.279   8.555  0.2572  0.4253 -0.0964
    1W        W52471  19.129  18.459   8.900 -0.2694 -0.0626 -0.1060
    1W        W52472  18.093  28.044   3.202  0.1665 -0.1444 -0.0200
    1W        W52473  15.493   1.383   9.171  0.1615  0.0422  0.3471
    1W        W52474   3.984   8.592   0.712 -0.0689 -0.1103 -0.0360
    1W        W52475  18.007  28.254   8.266  0.0006 -0.2590  0.0477
    1W        W52476  21.595  17.861   6.534  0.2699  0.0600 -0.0294
    1W        W52477   0.336  13.021   0.732  0.0670 -0.2140 -0.0535
    1W        W52478   1.928   6.293   0.457  0.0628  0.0208  0.2357
    1W        W52479   5.446  27.246   8.783  0.0845 -0.0582 -0.0391
    1W        W52480  15.276  24.862   2.334 -0.0717  0.0249 -0.1315
    1W        W52481  23.996   8.779   0.313 -0.0683  0.0658  0.0341
    1W        W52482  18.767  26.899   7.552 -0.2125  0.4300  0.1140
    1W        W52483   8.946  19.042   6.830  0.0407 -0.0942 -0.1686
    1W        W52484  12.636  28.018   2.529 -0.0355 -0.0963 -0.1214
    1W        W52485   7.109  22.459   8.823  0.1519 -0.1199  0.0420
    1W        W52486   4.123   3.625   0.506 -0.0619 -0.1718  0.1214
    1W        W52487  26.337  14.746   0.610  0.1593 -0.0437  0.0465
    1W        W52488  22.273  15.380   8.635 -0.0198 -0.0399  0.0985
    1W        W52489  12.593  13.346   8.903 -0.2230  0.1344  0.0365
    1W        W52490   8.657   8.278   0.564 -0.0139 -0.0779  0.2411
    1W        W52491  14.850   0.887   1.033 -0.0779 -0.2280  0.1365
    1W        W52492  24.061  20.854   0.597  0.3303 -0.2940 -0.1078
    1W        W52493  10.617  12.762   6.849  0.1626 -0.0804  0.1721
    1W        W52494  27.896   5.971   2.244  0.0025 -0.0828 -0.2519
    1W        W52495  15.282  17.632   1.001  0.0048  0.0342 -0.0375
    1W        W52496   3.904   5.769   2.841 -0.1376  0.0496  0.0531
    1W        W52497   3.416   9.465   0.439  0.2292  0.0595  0.2409
    1W        W52498  22.856  13.034   6.609 -0.1135 -0.4287 -0.0177
    1W        W52499  14.824  17.774   0.973 -0.0865  0.0374 -0.1742
    1W        W52500  17.264  19.816   0.084 -0.0463 -0.0938  0.2227
    1W        W52501  14.458   3.790   7.405  0.1095 -0.0228 -0.3014
    1W        W52502  17.498   5.037   7.124 -0.0484 -0.0418  0.1586
    1W        W52503  23.558  24.571   7.556 -0.0797  0.5244  0.0478
    1W        W52504  16.495  17.056   6.302 -0.1665  0.0273 -0.1210
    1W        W52505   2.621   8.830   1.210  0.0085  0.1938 -0.2612
    1W        W52506  29.590  29.257   0.784 -0.1300  0.1540 -0.0508
    1W        W52507   1.669  20.313   7.564 -0.0955 -0.0541  0.3485
    1W        W52508   5.335  11.925   1.367 -0.1514  0.1595  0.1590
    1W        W52509   5.851  16.967   8.895  0.2375  0.0688 -0.0446
    1W        W52510   6.129  20.503   8.595 -0.1127 -0.0666 -0.3210
    1W        W52511   4.990   2.885   8.109  0.2521 -0.0039  0.0689
    1W        W52512   5.369  30.288   0.573  0.0607  0.0500 -0.2231
    1W        W52513   9.788  23.954   8.565  0.1027 -0.1623 -0.1757
    1W        W52514  13.869   3.383   7.073 -0.0547 -0.1100  0.2252
    1W        W52515  18.502   9.474   9.070  0.0766 -0.1475 -0.3262
    1W        W52516  18.836  16.069   2.189  0.0861 -0.0219  0.1036
    1W        W52517  20.646   3.030   7.796  0.0921 -0.3025  0.1234
    1W        W52518  13.282  20.554   0.673  0.0736 -0.0899 -0.2757
    1W        W52519   1.463  30.262   2.083  0.0437 -0.0983  0.0035
    1W        W52520  23.381   3.166   2.989  0.0434  0.2761  0.0175
    1W        W52521   3.778   1.684   0.359  0.0082 -0.1045  0.2391
    1W        W52522   1.550  16.615   6.981 -0.1669 -0.2104  0.1453
    1W        W52523   1.320  29.561   3.941  0.0414  0.0066 -0.2403
    1W        W52524   2.565  16.009   1.343  0.3004 -0.1596  0.0332
    1W        W52525   0.239  24.380   7.303  0.4132  0.2617 -0.1071
    1W        W52526  21.729  11.323   8.416  0.0695 -0.1072  0.1250
    1W        W52527   6.278  12.576   0.716 -0.1971  0.1554 -0.1281
    1W        W52528   8.852   5.109   8.629 -0.0110  0.0214  0.0265
    1W        W52529  15.432  10.096   1.434  0.2357 -0.0135 -0.1613
    1W        W52530   7.268  23.161   2.548 -0.1388 -0.0223 -0.2524
    1W        W52531   3.128  28.610   8.546 -0.0569 -0.1690 -0.1249
    1W        W52532  24.813   4.551   2.572 -0.2512 -0.1495  0.3186
    1W        W52533  18.314  28.726   0.081  0.0913  0.2857  0.2364
    1W        W52534   3.051  15.404   8.345 -0.1678  0.1772  0.1751
    1W        W52535  20.198  12.092   1.889  0.2029 -0.2303 -0.3301
    1W        W52536   2.201   4.832   0.908 -0.0390 -0.2191  0.0438
    1W        W52537  21.098   5.610   8.340 -0.0225 -0.1191  0.0203
    1W        W52538  13.381   3.546   1.209  0.1737 -0.2394 -0.1391
    1W        W52539  15.571   7.463   2.263  0.0532  0.2697 -0.1023
    1W        W52540  12.998  17.399   1.954  0.1169 -0.3129  0.0373
    1W        W52541  19.655   4.048   3.116  0.0644 -0.1273  0.0892
    1W        W52542   9.839   5.882   1.518  0.2639  0.0480 -0.1188
    1W        W52543   3.409  12.050   8.428  0.0318  0.0812 -0.1694
    1W        W52544   8.376   0.156   0.368  0.0508  0.0362  0.0273
    1W        W52545  28.936  11.820   6.685  0.2752  0.0924 -0.0274
    1W        W52546  21.874   1.568   2.902  0.0256 -0.2373 -0.2430
    1W        W52547   0.040   8.479   7.460  0.1488 -0.2727 -0.1217
    1W        W52548  26.107   9.753   0.152  0.0562  0.2176 -0.1727
    1W        W52549  25.940   1.583   0.226  0.1311  0.3840  0.0052
    1W        W52550  27.279   4.593   8.208  0.1910  0.0565 -0.0499
    1W        W52551  16.131  12.602   2.719  0.0708 -0.0054 -0.3343
    1W        W52552  25.256  21.299   7.082 -0.0329 -0.0940  0.0166
    1W        W52553   9.788  23.902   7.763 -0.3177  0.0396 -0.0343
    1W        W52554  24.002  24.121   0.757  0.0305  0.2762  0.2289
    1W        W52555   5.504  13.172   8.867  0.1278  0.3896  0.1476
    1W        W52556   9.405  15.530   0.308  0.1722  0.1463  0.4634
    1W        W52557  24.911  22.543   5.980  0.1702  0.0249  0.0900
    1W        W52558  15.000  18.834   0.989 -0.0024 -0.3796 -0.4619
    1W        W52559  22.444  25.860   8.972 -0.1274  0.0740 -0.1298
    1W        W52560  28.905   4.147   8.077 -0.0354  0.0023  0.3213
    1W        W52561  16.038   4.174   6.538  0.1013 -0.2226 -0.0596
    1W        W52562  13.226  28.892   0.201  0.2042  0.0066  0.0236
    1W        W52563   8.579   4.531   2.641 -0.1964 -0.1890  0.2395
    1W        W52564   8.104  12.866   1.302  0.3315  0.0666 -0.0069
    1W        W52565  19.394   3.163   0.724  0.1967 -0.1066 -0.1872
    1W        W52566   8.771  12.540   0.703  0.2474  0.1805  0.1624
    1W        W52567  11.436   3.349   1.512  0.2172  0.1787 -0.1013
    1W        W52568   2.362   4.267   1.430  0.0815  0.0145  0.3031
    1W        W52569  13.456  14.596   2.367  0.1177  0.0206  0.1111
    1W        W52570  13.027  25.989   0.712 -0.2221 -0.1365  0.2120
    1W        W52571  10.633   1.867   2.365  0.1050  0.1143 -0.1269
    1W        W52572  19.494  18.726   6.999 -0.2142  0.1768 -0.3211
    1W        W52573   4.959   3.497   7.964 -0.0239  0.4190  0.1093
    1W        W52574  10.581  11.167   2.436  0.0211 -0.1197 -0.0569
    1W        W52575  28.596   2.058   7.760 -0.1613 -0.0794  0.5283
    1W        W52576  21.442  22.167   8.787  0.1024  0.0775 -0.0737
    1W        W52577   8.955   9.267   0.636  0.0545  0.0524 -0.0536
    1W        W52578  13.147   7.538   6.810 -0.1572 -0.0323  0.0252
    1W        W52579  17.562  14.283   2.961 -0.2940 -0.2117  0.1455
    1W        W52580  30.110   9.716   1.291 -0.0738  0.0659  0.1053
    1W        W52581   6.447  26.082   6.498 -0.0474 -0.0231 -0.2846
    1W        W52582  17.911   0.234   3.236  0.0565 -0.1283  0.1093
    1W        W52583  20.612   6.794   7.771  0.0560  0.1183  0.0974
    1W        W52584  15.048  24.521   2.716 -0.1225  0.0731 -0.1627
    1W        W52585  17.626  18.048   1.163  0.2677  0.4185  0.0686
    1W        W52586  19.585  23.902   0.968 -0.2250 -0.1123  0.0352
    1W        W52587   7.929  13.887   1.430  0.0037  0.2899  0.1188
    1W        W52588  21.047  19.655   7.968 -0.3401 -0.2359  0.1121
    1W        W52589  24.830  17.470   5.755  0.1125 -0.1585  0.2800
    1W        W52590  29.556   3.435   0.980 -0.2506  0.0335  0.1476
    1W        W52591  11.999  10.360   2.928 -0.0514 -0.1171 -0.1939
    1W        W52592  16.465  19.290   8.322 -0.1816 -0.1601  0.1206
    1W        W52593   3.882  29.509   2.079 -0.3239 -0.1567  0.0225
    1W        W52594  26.036  21.841   7.110  0.3153  0.0412 -0.0584
    1W        W52595  10.354  14.299   1.582  0.0439 -0.2094 -0.1522
    1W        W52596   1.067  11.149   8.666  0.1041  0.1380  0.1115
    1W        W52597  18.184  16.121   9.035 -0.0863 -0.1404 -0.1473
    1W        W52598  28.916  16.698   0.887  0.1986 -0.1946  0.0034
    1W        W52599  25.745   0.581   2.575 -0.0820 -0.1802  0.4365
    1W        W52600  19.459  14.103   1.827  0.1755  0.1768  0.3046
    1W        W52601  28.180  20.917   8.437  0.1027  0.2054 -0.2338
    1W        W52602  23.042  13.952   7.032 -0.1041 -0.4468 -0.0807
    1W        W52603  13.237   8.927   1.482 -0.0531  0.0121  0.2731
    1W        W52604  26.509   9.148   8.697  0.0852  0.3411 -0.0351
    1W        W52605   6.376   0.532   7.398  0.1424  0.1305 -0.1377
    1W        W52606  22.049   3.554   2.947  0.0644 -0.2217  0.0961
    1W        W52607  30.163  22.331   7.791 -0.0728 -0.1443 -0.2806
    1W        W52608   0.012  18.930   8.785  0.0078  0.0437 -0.0959
    1W        W52609  19.410   7.858   1.484  0.1216  0.1179 -0.2780
    1W        W52610  12.732  18.307   2.186 -0.2653 -0.1037  0.3560
    1W        W52611   6.355  19.115   5.569  0.1066 -0.1913  0.4533
    1W        W52612  14.217   3.534   0.391  0.1438  0.1002  0.1108
    1W        W52613  11.730  30.311   6.579  0.0261  0.0200  0.0533
    1W        W52614   7.482  24.149   2.531 -0.0300  0.1052 -0.2253
    1W        W52615   2.165   2.992   2.173 -0.1917 -0.2012  0.2099
    1W        W52616   5.052   5.970   0.159  0.0193 -0.0976  0.0983
    1W        W52617  25.635   3.243   3.843  0.4571 -0.0326 -0.0827
    1W        W52618   5.486  15.098   8.464  0.0549  0.1722  0.3326
    1W        W52619  13.184  10.838   0.557 -0.2050  0.2332 -0.3676
    1W        W52620   3.986   1.213   2.418  0.2927 -0.0144  0.2016
    1W        W52621  17.171  19.209   0.783  0.3500 -0.0856 -0.0994
    1W        W52622   1.509  28.967   6.863 -0.0557 -0.0869 -0.0126
    1W        W52623   5.990  20.417   6.633  0.1784 -0.0616  0.1404
    1W        W52624   9.863   2.124   8.694  0.0828 -0.0820  0.0114
    1W        W52625  27.371  16.521   6.777 -0.0914  0.0799 -0.0226
    1W        W52626  26.413  28.121   1.727  0.0636 -0.0544 -0.4239
    1W        W52627   7.774  29.668   1.422  0.0625  0.0341  0.1229
    1W        W52628  30.309  17.388   8.960 -0.2714  0.3049  0.1164
    1W        W52629  15.764   8.561   0.356 -0.1237  0.1911  0.1682
    1W        W52630  26.002   1.991   2.602  0.1601 -0.0857  0.4787
    1W        W52631  30.300   6.234   7.633  0.0069 -0.0392  0.0235
    1W        W52632  19.202  11.034   1.170  0.0405  0.2108  0.3526
    1W        W52633  20.193   5.571   7.713 -0.1758 -0.6473  0.1812
    1W        W52634   8.768   3.250   1.253 -0.0902 -0.2668  0.1033
    1W        W52635  21.642   2.095   7.014  0.2284  0.0351  0.0329
    1W        W52636  12.002   0.626   8.746  0.1504  0.3620 -0.2601
    1W        W52637  16.158   1.906   6.905  0.1821  0.2444  0.0364
    1W        W52638  20.501  25.892   2.733 -0.2007  0.0168  0.2623
    1W        W52639  14.182  14.184   3.700 -0.3051 -0.0316 -0.2313
    1W        W52640   1.778   1.884   1.612  0.3350 -0.1537  0.6121
    1W        W52641  17.327   7.324   7.455 -0.1796 -0.2860  0.0142
    1W        W52642   4.726  28.886   3.058  0.0358 -0.0829  0.1892
    1W        W52643  25.992  22.796   7.998 -0.1522  0.0912  0.0291
    1W        W52644  27.529   3.274   2.148 -0.0563  0.2023 -0.1521
    1W        W52645  27.605  14.202   6.969  0.0471  0.0143 -0.0594
    1W        W52646  12.832  10.634   8.091 -0.0420 -0.2270  0.1290
    1W        W52647   3.029   7.611   6.149 -0.1514 -0.2005  0.0618
    1W        W52648   8.959  27.900   6.685  0.0962  0.2121 -0.0166
    1W        W52649  28.982   7.301   3.121  0.0396  0.0291  0.1942
    1W        W52650  30.060  15.719   7.405 -0.0383  0.1603 -0.1531
    1W        W52651   9.189  24.449   6.776 -0.2023  0.0333 -0.2645
    1W        W52652  13.212  21.904   5.853 -0.0092  0.0118 -0.0874
    1W        W52653   5.446  14.204   7.432 -0.0171 -0.0478 -0.0453
    1W        W52654  19.061  24.145   0.494 -0.2148 -0.0161 -0.2332
    1W        W52655  12.666  17.999   1.730  0.1689 -0.0290 -0.1004
    1W        W52656  19.922  17.905   7.840 -0.0927  0.2106  0.3842
    1W        W52657  11.306  25.506   1.150 -0.2431  0.2025  0.2164
    1W        W52658   0.710  20.617   1.222 -0.1878 -0.0019  0.0787
    1W        W52659  20.908  15.714   1.543  0.0816 -0.3183  0.2533
    1W        W52660   0.551   7.337   1.975 -0.0255  0.0570  0.0504
    1W        W52661  11.175   1.245   2.679  0.3699  0.0116 -0.2406
    1W        W52662  18.024  10.456   7.103 -0.3388 -0.1212 -0.0363
    1W        W52663   5.072  24.899   9.188 -0.0375 -0.0574 -0.4805
    1W        W52664  16.127  28.055   7.053  0.2008 -0.1067 -0.3816
    1W        W52665  30.083   5.710   1.834 -0.2146  0.0065  0.1900
    1W        W52666  10.024  25.782   6.250 -0.2067  0.1736  0.1782
    1W        W52667  17.803  24.092   1.143 -0.1023  0.1674 -0.0294
    1W        W52668  18.148  27.058   0.196 -0.0029 -0.0073  0.1012
    1W        W52669  23.115  20.838   8.940  0.1908  0.0994 -0.0203
    1W        W52670  18.787  28.047   2.537  0.0177  0.1538 -0.0222
    1W        W52671  17.826   7.328   0.025 -0.0023 -0.2021 -0.2026
    1W        W52672   5.801  22.681   1.049  0.1095 -0.2988  0.0456
    1W        W52673  19.147   4.107   1.481  0.0839  0.0961  0.1000
    1W        W52674  27.024   7.173   6.968  0.1025  0.1395 -0.0793
    1W        W52675  15.548  18.481   1.060 -0.1237 -0.3255  0.0817
    1W        W52676   6.722   2.333   7.204  0.0410  0.3054  0.4808
    1W        W52677  20.662  23.647   1.623 -0.1323 -0.1087 -0.2966
    1W        W52678  29.335   3.203   8.155  0.1039 -0.0860 -0.0300
    1W        W52679   9.644  12.755   0.874 -0.2085 -0.0195  0.0349
    1W        W52680   9.610   9.781   9.099 -0.3044 -0.0777  0.2533
    1W        W52681   6.765  28.244   8.955 -0.0098 -0.4271  0.0589
    1W        W52682  17.211  16.354   0.272 -0.0142  0.2906 -0.1030
    1W        W52683   7.198  26.309   8.586 -0.2828  0.2749 -0.1485
    1W        W52684   6.576  13.993   1.881 -0.1821 -0.0508 -0.2668
    1W        W52685   9.825  11.549   0.529 -0.1019 -0.1652  0.0243
    1W        W52686   1.217   6.085   8.283  0.2974 -0.1259 -0.2133
    1W        W52687  15.630   4.954   6.622 -0.2239  0.3337 -0.2023
    1W        W52688  21.685   4.436   8.418  0.0981  0.0064  0.2420
    1W        W52689   9.944   1.624   7.909  0.2200 -0.1810  0.1593
    1W        W52690  27.711  24.315   6.883 -0.1187 -0.0450 -0.2129
    1W        W52691  26.899   1.952   8.402 -0.1370 -0.0980 -0.0588
    1W        W52692  15.461   1.958   7.612  0.1882  0.0940 -0.0468
    1W        W52693  17.237   7.968   6.614 -0.1034 -0.0195 -0.3133
    1W        W52694  28.764  23.032   7.493 -0.3977 -0.0399 -0.0907
    1W        W52695   8.495   2.525   8.462 -0.0693 -0.3661  0.3268
    1W        W52696  27.966  10.811   8.707 -0.0728  0.0182  0.2465
    1W        W52697  10.661   7.064   6.219 -0.2140  0.1954 -0.1826
    1W        W52698  29.480  16.940   8.575 -0.1287  0.1181 -0.2516
    1W        W52699  14.328  27.389   7.125  0.2954  0.0840  0.0148
    1W        W52700   9.998  15.963   7.796  0.1728 -0.1918 -0.0673
    1W        W52701  22.008  25.097   0.323 -0.3335 -0.0066  0.2293
    1W        W52702  10.751   8.352   1.556 -0.0808 -0.2554  0.2821
    1W        W52703  14.720  22.329   7.227  0.0119 -0.2952  0.4554
    1W        W52704   7.915   9.677   0.306 -0.0385  0.0906 -0.1950
    1W        W52705  13.965   8.190   0.173  0.1665  0.1013  0.2200
    1W        W52706  12.953  10.187   8.167 -0.1208 -0.0738  0.3746
    1W        W52707   4.582   6.460   1.876 -0.2363 -0.2733 -0.2235
    1W        W52708  10.872  10.994   1.525  0.0251 -0.3700  0.1705
    1W        W52709  18.463  16.426   2.770  0.1634 -0.3335 -0.1168
    1W        W52710  30.321  20.902   7.600 -0.0369 -0.2420 -0.4733
    1W        W52711  13.876   0.624   0.051 -0.1212  0.0895  0.2695
    1W        W52712  15.806   4.827   7.149 -0.1415  0.0092  0.0204
    1W        W52713  18.741   9.494   5.834  0.0910 -0.1788 -0.1593
    1W        W52714   9.398  21.747   9.021  0.0444  0.1282 -0.0663
    1W        W52715   3.944  10.750   2.184  0.0186 -0.4514 -0.2488
    1W        W52716  13.690  19.013   9.255  0.1880 -0.1048 -0.2626
    1W        W52717   3.008   5.940   1.337  0.3150  0.2124  0.1761
    1W        W52718  18.816  28.233   7.564  0.0729  0.0246  0.3532
    1W        W52719  26.888   7.294   1.249 -0.1114 -0.1511  0.2577
    1W        W52720   0.929  20.524   0.386 -0.0166  0.1769  0.3498
    1W        W52721  24.923  29.405   8.596  0.0247  0.3135  0.0243
    1W        W52722  20.444  20.431   1.593  0.0476  0.3744  0.2147
    1W        W52723  29.639  15.892   0.156  0.2967  0.0401 -0.1806
    1W        W52724  26.977  13.606   9.196 -0.0074  0.1773  0.0234
    1W        W52725   0.699  11.087   0.300 -0.1893 -0.5659 -0.0590
    1W        W52726   2.956   7.226   0.487 -0.2475  0.0679  0.0519
    1W        W52727   2.886  25.094   0.874 -0.0151 -0.0076 -0.0783
    1W        W52728  25.473   4.010   7.788  0.0953 -0.1125  0.0009
    1W        W52729  20.889  21.385   1.692  0.2045 -0.0920 -0.0381
    1W        W52730   6.048   7.061   1.618  0.1507  0.2159 -0.2614
    1W        W52731  12.090   0.133   8.917 -0.1376 -0.0734  0.4541
    1W        W52732  22.768  20.421   6.525 -0.0130 -0.0875  0.0450
    1W        W52733  26.471  24.574   7.518  0.0855  0.1332 -0.0548
    1W        W52734  20.554   8.941   0.478 -0.1827  0.0493 -0.2246
    1W        W52735  22.557  15.716   6.299 -0.3438 -0.0998 -0.0801
    1W        W52736  10.733  26.071   7.676  0.2497  0.0552 -0.1026
    1W        W52737  14.036   1.060   0.556  0.3831 -0.3776 -0.4760
    1W        W52738   5.879   2.648   2.280  0.2784 -0.3629 -0.0612
    1W        W52739  20.925  26.272   2.638  0.4852 -0.0066  0.2197
    1W        W52740   9.654  26.934   2.530 -0.1547 -0.0211  0.2092
    1W        W52741  20.450  20.376   6.445  0.2707 -0.0072 -0.0826
    1W        W52742  19.687  23.257   8.092  0.2328 -0.5019  0.1729
    1W        W52743  18.657  18.647   1.068  0.0437  0.0602  0.0209
    1W        W52744  15.052  27.389   0.356  0.0662 -0.2267  0.0777
    1W        W52745  14.230  20.881   2.235 -0.0856 -0.3420 -0.0587
    1W        W52746  14.556  11.556   0.257  0.1474  0.1063 -0.4275
    1W        W52747  12.675  27.469   2.651 -0.0576  0.0509 -0.1749
    1W        W52748  26.488  19.486   0.346  0.1782  0.0039 -0.1173
    1W        W52749   9.458  20.343   8.954 -0.1571 -0.1746  0.0006
    1W        W52750  21.318  20.163   6.731  0.3269  0.1474 -0.2257
    1W        W52751  27.656  23.720   0.953 -0.2828 -0.1193  0.0350
    1W        W52752  20.076  28.630   0.865 -0.0972  0.0772 -0.2695
    1W        W52753   0.762   7.946   2.589  0.1222  0.0887 -0.3317
    1W        W52754  11.881  12.764   3.531 -0.1254 -0.0540 -0.0924
    1W        W52755  11.554  21.647   7.886  0.2186  0.0042  0.1985
    1W        W52756  28.244  22.624   0.470  0.4224  0.0125 -0.1786
    1W        W52757  27.451   6.506   2.282 -0.3625 -0.2663 -0.0614
    1W        W52758   6.166  30.261   0.101 -0.2544  0.1789 -0.1751
    1W        W52759  21.968   6.850   0.812  0.1636 -0.0523 -0.0659
    1W        W52760  14.793  17.115   7.813 -0.1006  0.2468 -0.3248
    1W        W52761  22.483  24.397   8.425  0.2874 -0.2038 -0.0647
    1W        W52762  20.382  22.307   0.670 -0.2170  0.1019 -0.1359
    1W        W52763  23.544   8.767   6.358  0.0350  0.0741 -0.1209
    1W        W52764   1.510  16.194   0.652 -0.0453  0.1499 -0.1853
    1W        W52765  21.849  20.949   9.135  0.3151  0.0226  0.1070
    1W        W52766   8.600  14.423   0.720  0.4153  0.4082 -0.1786
    1W        W52767  18.722  15.120   0.257 -0.0190  0.0865  0.0762
    1W        W52768  17.642  17.342   0.167  0.2726  0.0817  0.1550
    1W        W52769   5.921  16.947   7.860  0.1140  0.1763  0.0898
    1W        W52770  11.826   2.573   6.104  0.1109 -0.1928  0.2314
    1W        W52771  29.090   6.230   8.732  0.2182 -0.0054 -0.0734
    1W        W52772  20.810   7.715   8.743 -0.2204 -0.1719  0.1741
    1W        W52773  29.778  10.891   0.102  0.2900 -0.1291 -0.1779
    1W        W52774  29.920  29.042   8.305 -0.2194  0.0098 -0.2393
    1W        W52775  13.258  14.606   1.258 -0.0182  0.1671 -0.2634
    1W        W52776   6.917  22.040   0.453  0.0674  0.0730  0.0403
    1W        W52777   9.669  24.466   5.906  0.0255 -0.0839  0.0751
    1W        W52778  24.848   5.376   6.657  0.0797 -0.0877 -0.0943
    1W        W52779  17.346   1.994   2.149  0.2191 -0.1634  0.1645
    1W        W52780  12.456  15.398   3.513  0.0737 -0.0211  0.2001
    1W        W52781  13.975  22.133   6.486 -0.1231 -0.2727  0.0534
    1W        W52782  23.347  15.256   1.388 -0.0029 -0.2933 -0.1733
    1W        W52783  21.324  11.917   0.240  0.0096  0.1325 -0.0595
    1W        W52784  16.398  29.886   7.464 -0.1504  0.3367  0.1851
    1W        W52785  25.698   5.690   0.549  0.0614  0.3022  0.1429
    1W        W52786   2.736  18.617   0.402 -0.2188 -0.0791 -0.0460
    1W        W52787  25.047   4.232   1.939 -0.1434 -0.2179 -0.2035
    1W        W52788   1.562  24.579   0.088 -0.0528 -0.0620  0.2174
    1W        W52789  14.130   0.200   9.184 -0.0754 -0.1740 -0.1036
    1W        W52790   2.110   5.642   8.656  0.0502 -0.1245 -0.3252
    1W        W52791  21.047   7.304   6.190 -0.1068 -0.0533 -0.1049
    1W        W52792  14.348  16.841   7.221  0.0764 -0.1420 -0.0615
    1W        W52793  30.100  22.303   1.451 -0.0320  0.3153  0.1592
    1W        W52794   6.667   3.643   8.798 -0.2478 -0.1674  0.2511
    1W        W52795  10.542   5.637   2.126 -0.0237 -0.1452 -0.0905
    1W        W52796  17.170  12.481   1.078 -0.2075  0.3215  0.1648
    1W        W52797  15.856  19.733   8.136 -0.0382  0.0213  0.1414
    1W        W52798  13.239  15.188   7.997  0.0367  0.0511 -0.0660
    1W        W52799  10.897  12.465   8.537 -0.1095  0.1322 -0.2018
    1W        W52800  16.191   0.399   7.542  0.1600  0.0756 -0.0438
    1W        W52801  18.677   7.793   1.855 -0.2117 -0.1642 -0.0492
    1W        W52802  19.243  29.397   1.474 -0.0984 -0.2516  0.0078
    1W        W52803   4.666  19.533   0.678 -0.0355  0.0598 -0.2338
    1W        W52804  22.455  13.803   9.059 -0.0568 -0.0241  0.3434
    1W        W52805  17.792  17.529   8.557 -0.1088 -0.3240 -0.4620
    1W        W52806  20.539  26.889   2.544  0.3148  0.0149  0.0961
    1W        W52807  23.875  24.963   6.872  0.0158 -0.1045  0.0751
    1W        W52808   5.472   0.702   8.460  0.2126 -0.1169  0.3417
    1W        W52809  11.849  23.792   7.261  0.1925 -0.3390 -0.0377
    1W        W52810  29.956  20.651   8.789  0.0586  0.2482 -0.0363
    1W        W52811   2.804  12.214   1.618 -0.0782 -0.0859 -0.0281
    1W        W52812  13.918  27.746   2.458 -0.0923 -0.1131  0.0134
    1W        W52813   2.371   2.936   3.748  0.0289  0.1908 -0.2271
    1W        W52814   4.446  19.090   1.642  0.0891 -0.1416 -0.0373
    1W        W52815  22.253   3.359   2.449  0.1140  0.2018  0.1193
    1W        W52816  18.331  27.841   0.180 -0.1374 -0.0385 -0.0221
    1W        W52817   2.085  28.947   2.808  0.1211 -0.2979  0.0579
    1W        W52818   3.772  18.802   0.508  0.0182 -0.1230 -0.2302
    1W        W52819  17.750  15.313   2.172 -0.1824  0.2887  0.1403
    1W        W52820  10.161  19.830   1.925  0.0168  0.2396 -0.0947
    1W        W52821  18.016  24.397   1.453 -0.0285  0.1625  0.0059
    1W        W52822  18.778   2.261   1.108 -0.0811  0.1879  0.0356
    1W        W52823   2.108   4.296   6.297  0.1524 -0.0487  0.0362
    1W        W52824   2.825  26.480   0.048 -0.1826  0.1780  0.0785
    1W        W52825   3.550   6.713   8.810  0.0893  0.3676  0.0433
    1W        W52826  26.782   3.052   3.227 -0.1650 -0.1278 -0.0291
    1W        W52827   7.694   5.704   9.083  0.2761  0.2281 -0.1587
    1W        W52828  15.069  23.516   0.070  0.2764 -0.3381 -0.0409
    1W        W52829   8.272   6.882   2.574  0.0927 -0.1751 -0.1022
    1W        W52830  11.787  18.859   1.633  0.2601  0.2050  0.1167
    1W        W52831   8.048   1.731   2.559  0.0028 -0.1152 -0.4078
    1W        W52832  23.103  28.115   0.054  0.0187 -0.5844 -0.0492
    1W        W52833   6.111  27.093   0.857 -0.1524 -0.1014  0.0638
    1W        W52834  15.573  28.339   6.131 -0.2135 -0.0720  0.2531
    1W        W52835  28.455  25.754   9.028  0.1007  0.0355 -0.3747
    1W        W52836  28.381  22.100   7.568 -0.0338 -0.1600 -0.3797
    1W        W52837  20.797  22.205   7.872 -0.0229  0.1144 -0.2136
    1W        W52838  29.184  28.347   6.951 -0.0016  0.3579  0.1119
    1W        W52839  13.758  27.355   1.578 -0.1731 -0.0651  0.1662
    1W        W52840  13.365  25.640   9.249  0.1332  0.0081 -0.3857
    1W        W52841  21.015  25.334   2.924  0.0215 -0.0148 -0.1656
    1W        W52842  21.005  15.401   1.034  0.3549 -0.1466 -0.3139
    1W        W52843  27.427  24.354   1.583 -0.0225  0.1064 -0.3685
    1W        W52844  10.724   0.284   7.959  0.2526  0.0211  0.0308
    1W        W52845  29.041  18.802   7.480  0.3594  0.0575 -0.1144
    1W        W52846  13.637  14.382   8.789 -0.0138  0.0390  0.1431
    1W        W52847  12.650   0.748   2.008  0.2685  0.0835  0.1567
    1W        W52848  12.333  18.870   1.651 -0.2929  0.0341  0.1869
    1W        W52849  14.506  21.820   0.097 -0.1420  0.0092  0.2229
    1W        W52850  28.570  25.363   1.016  0.3991  0.3935  0.2478
    1W        W52851   6.770  25.060   7.608  0.1769 -0.2435 -0.2379
    1W        W52852  20.023  18.811   8.731 -0.0593  0.0695  0.1318
    1W        W52853   7.520  22.328   7.858 -0.0638 -0.0729 -0.1804
    1W        W52854   7.117  11.422   9.270 -0.1117 -0.1459  0.2348
    1W        W52855  22.940  18.603   8.095 -0.1284  0.0582 -0.0715
    1W        W52856  10.871   8.041   9.124  0.0014  0.0956 -0.4236
    1W        W52857   7.378   0.419   8.583 -0.0427 -0.2005 -0.0059
    1W        W52858  25.021  18.843   0.612 -0.0300 -0.1914 -0.1162
    1W        W52859  24.575   4.262   6.779 -0.0011  0.1153  0.1266
    1W        W52860   0.004   4.938   1.562  0.3028  0.1355  0.0682
    1W        W52861  10.025  25.650   1.971 -0.2183 -0.3347  0.2240
    1W        W52862   1.476  14.306   7.379  0.0152  0.1118 -0.1976
    1W        W52863  28.742  29.817   6.826 -0.0586 -0.0572 -0.1006
    1W        W52864  25.788  23.064   0.320 -0.4134 -0.2983 -0.1125
    1W        W52865  29.243  20.725   0.075  0.2523 -0.1067 -0.0299
    1W        W52866  26.198   3.441   2.877  0.3362  0.0939 -0.3922
    1W        W52867  14.835  26.587   6.927 -0.0149  0.0361  0.0961
    1W        W52868  26.548   7.844   0.222  0.0311 -0.4265  0.0637
    1W        W52869  22.097  10.017   6.317 -0.0737 -0.1201 -0.1528
    1W        W52870   5.148  17.925   7.048  0.0503  0.1231 -0.0486
    1W        W52871  22.454  18.765   6.423  0.1671 -0.0405  0.0474
    1W        W52872   0.149  11.794   2.082 -0.0231  0.0394 -0.1385
    1W        W52873  25.255  15.446   7.261  0.0450  0.0373  0.1150
    1W        W52874  24.238  29.754   0.024 -0.1104  0.1767 -0.1582
    1W        W52875   6.250  15.423   8.195  0.0029  0.0688  0.2599
    1W        W52876  29.285  27.034   2.060 -0.0669  0.1431 -0.3515
    1W        W52877  24.544   1.429   0.398  0.1753  0.1110  0.1570
    1W        W52878  19.245   6.972   7.617 -0.2632 -0.2173  0.0326
    1W        W52879   6.153   9.788   2.325  0.0358 -0.1748 -0.0661
    1W        W52880  16.024  17.764   8.911 -0.1072  0.1578 -0.0573
    1W        W52881  15.167  15.282   9.000 -0.1044 -0.2899 -0.0843
    1W        W52882  26.404  23.207   0.852  0.3666 -0.0052 -0.0044
    1W        W52883   8.421   7.666   3.154  0.0077 -0.4125 -0.0277
    1W        W52884  22.455  22.681   5.898  0.2367  0.0012 -0.2056
    1W        W52885  29.139  16.110   1.703  0.1108  0.2916  0.0082
    1W        W52886   7.834   6.769   3.335  0.0872  0.2556 -0.0642
    1W        W52887   7.512  13.148   9.003 -0.0210 -0.0578 -0.0752
    1W        W52888   7.716  25.309   1.589 -0.0721 -0.0240  0.1037
    1W        W52889  23.604   8.134   7.424 -0.0909 -0.1570  0.2558
    1W        W52890  11.330  22.236   1.776 -0.1260 -0.1193 -0.1978
    1W        W52891  11.563  13.959   1.480 -0.4199  0.0774  0.1645
    1W        W52892  12.605  26.569   2.402  0.2018  0.0072 -0.1333
    1W        W52893  17.595  23.784   8.760  0.2278 -0.1692  0.2101
    1W        W52894  19.008   7.169   0.857 -0.0007  0.0913  0.0891
    1W        W52895  20.309  16.218   0.957 -0.2167 -0.1723  0.0032
    1W        W52896  10.989  11.149   0.567 -0.1998 -0.0257 -0.1008
    1W        W52897  16.353   5.043   0.893  0.1562  0.0628 -0.2479
    1W        W52898   0.787  25.485   1.821  0.1143  0.1173  0.0619
    1W        W52899  23.105   0.636   2.308  0.1689  0.2632  0.2506
    1W        W52900   6.344   0.666   9.036  0.1359  0.2719 -0.0719
    1W        W52901  23.653  25.500   6.610 -0.1731 -0.2000 -0.3617
    1W        W52902  13.851  29.535   2.097 -0.0208  0.1710  0.0139
    1W        W52903  29.870  10.057   8.186 -0.2645 -0.1534 -0.2786
    1W        W52904  20.419  26.899   1.516 -0.2318 -0.3893 -0.0353
    1W        W52905  11.624   8.572   7.192  0.2378 -0.0657  0.5846
    1W        W52906  29.106  17.176   1.649 -0.0978 -0.0918 -0.0680
    1W        W52907  24.990  21.251   1.072  0.2155 -0.1497 -0.2129
    1W        W52908   5.259   2.812   2.700  0.0048 -0.0625  0.2303
    1W        W52909  14.657  20.581   6.883  0.0084 -0.1562 -0.0989
    1W        W52910   0.890  29.685   8.731 -0.0616 -0.0569  0.0253
    1W        W52911   9.269  21.692   0.254  0.1145 -0.3236  0.3597
    1W        W52912  18.320  20.442   6.492  0.2109  0.1091 -0.0263
    1W        W52913  28.678  12.214   7.483  0.1199 -0.0754  0.1184
    1W        W52914  29.290  13.396   7.163  0.3584  0.4507 -0.0729
    1W        W52915  12.241   9.755   0.065 -0.0260  0.0410  0.1412
    1W        W52916   9.441  10.510   1.105  0.1609  0.0512 -0.1151
    1W        W52917  28.774  12.501   2.512  0.2246 -0.0935  0.1662
    1W        W52918   9.715  22.286   1.951 -0.1662  0.1474 -0.1911
    1W        W52919  23.239   1.987   8.639  0.0946  0.0437 -0.0206
    1W        W52920  15.085  26.927   7.844  0.1309  0.0347 -0.2872
    1W        W52921  25.458  11.519   6.594 -0.0932 -0.1852 -0.0088
    1W        W52922  19.551   0.179   0.854  0.1531 -0.2649 -0.0226
    1W        W52923  12.014  21.550   0.046 -0.0808  0.0137 -0.0727
    1W        W52924  20.949   0.584   6.963  0.0703  0.1120 -0.3623
    1W        W52925  23.905  18.802   6.249 -0.1895  0.0203 -0.2379
    1W        W52926  26.439  23.548   2.390 -0.1008 -0.0128 -0.0839
    1W        W52927   7.715  25.296   7.619 -0.0872  0.1187  0.0219
    1W        W52928   4.549  15.922   1.465  0.2983  0.0342 -0.1007
    1W        W52929  29.700  16.444   8.731 -0.0723 -0.2911  0.3002
    1W        W52930  12.691  18.027   7.527 -0.0324 -0.0324  0.2546
    1W        W52931  15.367   1.613   6.847  0.0326  0.1294  0.0956
    1W        W52932  21.554  12.410   8.757 -0.1628 -0.1289 -0.1654
    1W        W52933  24.089   9.100   2.065 -0.0140 -0.0946  0.1393
    1W        W52934  19.925  14.384   7.840  0.0621  0.0950  0.2352
    1W        W52935   0.742  10.842   7.307 -0.0508  0.4187 -0.0709
    1W        W52936   3.029   9.329   1.715  0.0047  0.1380 -0.0220
    1W        W52937  17.895  19.383   8.024  0.2702  0.1902 -0.0302
    1W        W52938   3.581  28.385   7.812 -0.1296 -0.2883 -0.1459
    1W        W52939   2.276   4.527   1.990  0.3208  0.1151  0.1489
    1W        W52940   6.988  26.824   8.361  0.1250  0.1244  0.1182
    1W        W52941  10.253   7.131   0.918 -0.0544  0.0566 -0.2327
    1W        W52942  15.673  23.778   0.231 -0.4345 -0.1828 -0.2705
    1W        W52943   9.874   9.804   1.061  0.1485  0.1044 -0.0834
    1W        W52944   6.249  22.826   1.280  0.2162 -0.1508 -0.0762
    1W        W52945  24.767  13.765   2.341 -0.3501 -0.1357 -0.0162
    1W        W52946  15.049   1.761   6.547 -0.0384 -0.1078 -0.0230
    1W        W52947   4.275  24.699   7.878  0.2208 -0.0707 -0.0555
    1W        W52948  22.117   5.875   0.071 -0.3976  0.0818 -0.1106
    1W        W52949  28.843  18.162   8.135  0.4228  0.0245  0.2214
    1W        W52950  25.156  14.803   6.436  0.0260  0.2272 -0.2116
    1W        W52951  26.119  29.670   3.131  0.3050  0.1681 -0.2248
    1W        W52952  28.169  29.693   0.722 -0.3470  0.3320 -0.1920
    1W        W52953   5.259  20.032   1.215  0.2244  0.0228  0.1542
    1W        W52954   4.914  17.764   8.634  0.0799  0.0945  0.0875
    1W        W52955  25.840  21.207   0.023  0.0764  0.0315  0.2503
    1W        W52956  23.290  25.812   1.650  0.0621 -0.0744  0.0554
    1W        W52957  10.027   1.372   1.395  0.2583  0.0502  0.2025
    1W        W52958  29.056  27.951   8.215  0.2644 -0.3012 -0.2740
    1W        W52959  25.138  24.525   6.424 -0.0448 -0.1670 -0.1399
    1W        W52960  11.959  21.093   0.987 -0.0391  0.0532 -0.2422
    1W        W52961  21.383  30.218   1.482 -0.2102 -0.0709  0.2840
    1W        W52962   9.961  27.800   0.256 -0.1750 -0.0032  0.2812
    1W        W52963  23.593  29.203   2.056 -0.1776  0.0196 -0.0721
    1W        W52964  24.130  29.816   8.177  0.0171 -0.2810 -0.0142
    1W        W52965   7.873  24.838   7.904  0.1499  0.3178 -0.1489
    1W        W52966   5.018  12.090   7.654 -0.1341  0.1858  0.2249
    1W        W52967   8.545  10.917   9.157 -0.0744 -0.0180 -0.4158
    1W        W52968  11.710  20.984   7.217 -0.0402  0.1265 -0.0678
    1W        W52969  12.118  24.647   8.217  0.0316 -0.2470 -0.3060
    1W        W52970  23.194  19.968   6.173  0.1587 -0.0484 -0.2395
    1W        W52971  11.602  23.051   5.766  0.0706 -0.2041 -0.0645
    1W        W52972   5.266  15.036   7.819 -0.0472 -0.0761 -0.0351
    1W        W52973  15.551  29.035   8.691 -0.3346  0.1113  0.0541
    1W        W52974   5.421  11.275   1.477  0.1033 -0.3956 -0.1931
    1W        W52975  17.330  18.817   8.694 -0.1190 -0.0658 -0.0657
    1W        W52976  14.036  15.270   8.323  0.1055  0.2073  0.1172
    1W        W52977   0.511  21.729   0.405 -0.1135 -0.1591  0.0840
    1W        W52978  24.925  13.230   2.513  0.0972 -0.2190 -0.4524
    1W        W52979  27.050  23.952   2.391  0.0038  0.0429  0.1948
    1W        W52980   3.992  26.845   7.098 -0.0230 -0.1293  0.3193
    1W        W52981   9.287  18.751   7.109  0.0191 -0.1327  0.0170
    1W        W52982  27.388  19.003   0.284 -0.0388  0.0334 -0.0841
    1W        W52983  29.203  10.375   0.447  0.0543  0.0858 -0.0100
    1W        W52984   8.790  14.539   8.843  0.1044 -0.0177  0.0567
    1W        W52985  14.100   3.453   2.425 -0.1125 -0.4511 -0.0242
    1W        W52986  17.839  15.345   7.350 -0.0618 -0.1427  0.0056
    1W        W52987  18.047  17.055   0.025 -0.1973  0.2963  0.1856
    1W        W52988  11.677  27.422   0.771  0.4159 -0.0906  0.3093
    1W        W52989  20.201  25.804   8.638 -0.0435  0.0382 -0.2100
    1W        W52990  22.232  22.509   8.092 -0.1228 -0.1154  0.3357
    1W        W52991  13.654  29.833   7.555 -0.2475  0.1660 -0.0081
    1W        W52992  12.844  20.722   7.613  0.1755 -0.2360  0.2093
    1W        W52993   8.892  23.395   6.464  0.1836  0.2440  0.3426
    1W        W52994   2.675   3.171   2.599  0.2034 -0.0854 -0.3548
    1W        W52995   8.820   4.796   7.397 -0.2823  0.0136 -0.0459
    1W        W52996  23.413   8.209   6.984 -0.2622  0.0187  0.0584
    1W        W52997  20.366   7.017   2.408 -0.0780 -0.0506 -0.1755
    1W        W52998   4.984  26.961   2.616  0.1105 -0.4160 -0.0397
    1W        W52999  27.034  27.986   8.874  0.3069 -0.1673 -0.1872
    1W        W53000   6.326   7.692   0.514  0.0656 -0.0185 -0.1427
    1W        W53001  25.307  24.949   6.025  0.1165  0.1753  0.2018
    1W        W53002  23.662   6.289   7.505 -0.0567 -0.1199  0.4159
    1W        W53003   6.803  16.452   6.533 -0.1813 -0.4225  0.2449
    1W        W53004   4.631  26.617   2.645 -0.1458  0.2283  0.0837
    1W        W53005  11.044   0.674   8.024 -0.1606  0.0019  0.2492
    1W        W53006   6.707  20.469   8.424 -0.1198 -0.0650 -0.2346
    1W        W53007  28.703  19.868   6.514  0.4727 -0.0601  0.0634
    1W        W53008  24.703   1.984   6.614  0.0567  0.2461  0.1046
    1W        W53009   6.519  19.634   0.650 -0.0731  0.0773 -0.4451
    1W        W53010   3.456  22.334   0.168 -0.2223 -0.1831 -0.0153
    1W        W53011   9.481   4.091   1.985  0.1694 -0.0873 -0.0092
    1W        W53012   1.833  27.246   7.382 -0.0714  0.1440 -0.0480
    1W        W53013  20.602   7.075   6.275  0.2816  0.1120 -0.0576
    1W        W53014  11.190   4.190   9.151 -0.0270  0.0207  0.2581
    1W        W53015   3.316   4.960   7.428  0.0208 -0.0744 -0.2662
    1W        W53016  11.100  29.607   3.095 -0.3348 -0.0047  0.0822
    1W        W53017   7.891  18.155   7.771 -0.1672  0.1277 -0.0573
    1W        W53018  26.302  20.064   6.891  0.0637  0.0288  0.1005
    1W        W53019   1.828  10.356   7.970  0.1746 -0.3557 -0.0408
    1W        W53020  28.336  29.772   3.834 -0.0027 -0.2791 -0.1858
    1W        W53021  23.992  28.303   2.392 -0.0990  0.0780  0.3350
    1W        W53022  14.157  15.626   7.914  0.2338 -0.2211  0.5233
    1W        W53023   2.246  20.157   7.587  0.2438 -0.1160  0.1043
    1W        W53024  23.409  22.327   9.066  0.1973 -0.1954 -0.0869
    1W        W53025   0.205  28.580   7.084  0.1189 -0.0590  0.1498
    1W        W53026  16.814  10.472   0.198 -0.1312 -0.0495  0.2096
    1W        W53027  24.661  28.893   9.132 -0.0758 -0.0982 -0.1112
    1W        W53028  12.291  16.135   8.271  0.4372 -0.1384 -0.0438
    1W        W53029  13.576  20.266   7.292  0.2412  0.1415 -0.0142
    1W        W53030  14.658  24.878   6.683 -0.3254  0.3762 -0.5745
    1W        W53031  25.674  23.998   9.150 -0.0798  0.2587  0.0402
    1W        W53032   2.263   5.915   2.347  0.2416  0.1162  0.0941
    1W        W53033  20.798   4.025   1.171  0.1113  0.3397  0.0298
    1W        W53034   9.528  24.748   8.421  0.2388  0.0285 -0.0270
    1W        W53035  19.026   9.152   0.221  0.1444  0.1421  0.0451
    1W        W53036  10.824  16.250   6.791  0.2329  0.2247  0.1183
    1W        W53037  17.606   3.186   6.637 -0.2875  0.1602 -0.2130
    1W        W53038  15.970  21.962   7.408 -0.0119 -0.1865  0.1391
    1W        W53039  10.894  14.317   7.958  0.1298  0.3122  0.0112
    1W        W53040   2.761   1.227   0.735 -0.1747  0.2758  0.1106
    1W        W53041  14.026  26.936   2.010  0.2625 -0.0653 -0.0558
    1W        W53042   6.462  16.257   7.889 -0.4021  0.2405  0.0709
    1W        W53043  15.425  11.952   1.393 -0.0314 -0.0368 -0.1049
    1W        W53044  10.080   4.481   6.848 -0.0175 -0.2656  0.1002
    1W        W53045  14.951   2.941   1.142 -0.1958  0.0485 -0.1040
    1W        W53046  30.338  22.785   1.739 -0.3337 -0.2054  0.0841
    1W        W53047  27.886  27.510   3.382 -0.1440  0.4588 -0.2380
    1W        W53048  26.487  13.960   6.270 -0.1244 -0.2131  0.1754
    1W        W53049  29.782   9.582   2.628 -0.1590  0.2373 -0.0722
    1W        W53050  28.771  21.050   7.119  0.3886  0.2674  0.0566
    1W        W53051   8.701  28.428   7.422 -0.0737  0.0054  0.0842
    1W        W53052  26.461  29.143   9.239 -0.0018 -0.1719 -0.1540
    1W        W53053   4.500   9.064   8.336  0.1237  0.1609  0.1983
    1W        W53054   7.953  24.205   0.395 -0.2420 -0.1441  0.1550
    1W        W53055  14.252  26.404   7.906  0.0205 -0.0247  0.0419
    1W        W53056  14.007   0.138   5.946  0.0094  0.2460 -0.1256
    1W        W53057  14.212  15.641   2.910 -0.3068  0.1137 -0.0310
    1W        W53058  17.946   1.227   8.699  0.2634 -0.0131 -0.1330
    1W        W53059   1.175   2.022   6.667  0.2201 -0.2701 -0.1353
    1W        W53060  24.111   7.959   1.231  0.0980 -0.1620 -0.2134
    1W        W53061   5.449  12.264   7.778 -0.1042 -0.0460  0.0680
    1W        W53062   0.156  25.644   7.724  0.1224  0.0315  0.0876
    1W        W53063  24.880  29.789   1.840 -0.2218 -0.4264 -0.0479
    1W        W53064  26.217  24.694   1.702  0.1972  0.0369 -0.0595
    1W        W53065   6.507  16.865   1.657 -0.3756  0.1622 -0.0139
    1W        W53066  28.871  27.110   8.838  0.1230  0.0907  0.0727
    1W        W53067  28.557  29.269   8.132 -0.0177 -0.3114 -0.1929
    1W        W53068   1.011   1.788   2.421 -0.1708  0.2099  0.2894
    1W        W53069  21.641   2.308   7.455  0.5894 -0.2813 -0.1953
    1W        W53070   5.786  10.085   7.552  0.1292 -0.0292  0.3956
    1W        W53071   5.952   7.025   1.126 -0.2979  0.2415  0.0080
    1W        W53072   6.463  13.436   0.420  0.4003 -0.0683 -0.0975
    1W        W53073   1.748  17.897   1.540 -0.1397 -0.0518  0.0809
    1W        W53074   2.216   5.345   3.028 -0.0903  0.2952 -0.0493
    1W        W53075  25.731   4.228   0.400 -0.1626  0.1690  0.3739
    1W        W53076  22.323   1.414   2.343 -0.2662 -0.1426 -0.3341
    1W        W53077  10.573  29.170   1.260 -0.0327 -0.3701 -0.0147
    1W        W53078   7.372   6.767   1.176 -0.1065  0.0296  0.1737
    1W        W53079  13.849  21.115   7.078 -0.2419  0.0321  0.3296
    1W        W53080  10.626  24.470   8.919 -0.2447 -0.1327  0.7011
    1W        W53081  30.103  16.116   6.842  0.0098  0.2598 -0.1472
    1W        W53082  13.928   1.476   1.976  0.1454  0.2137 -0.1420
    1W        W53083  27.477  22.571   0.387  0.3317  0.1373 -0.0975
    1W        W53084   5.392  17.570   7.882 -0.0878  0.0357  0.0241
    1W        W53085   6.194   7.303   2.001  0.0246 -0.1736  0.0832
    1W        W53086  17.721  15.105   9.136  0.2566 -0.1502 -0.2102
    1W        W53087  16.583  26.534   1.649  0.0913  0.0618 -0.0974
    1W        W53088  13.583  23.747   1.243  0.2425 -0.0495 -0.0522
    1W        W53089  15.896  21.796   7.876 -0.1025 -0.0774  0.1635
    1W        W53090   4.412  12.853   7.343  0.0873 -0.0484 -0.0588
    1W        W53091  18.696   0.619   9.056  0.0729 -0.1253 -0.0424
    1W        W53092  19.637  19.177   8.688  0.0535  0.0981  0.0741
    1W        W53093   3.918  24.622   0.961 -0.3007 -0.2512  0.0706
    1W        W53094  19.298  22.542   7.092 -0.0823  0.0090  0.0465
    1W        W53095  24.288  15.177   9.105  0.0698  0.1814 -0.2719
    1W        W53096   7.289  24.552   8.025  0.1006  0.4224  0.2262
    1W        W53097  21.797  23.561   0.564  0.1303  0.2382 -0.0864
    1W        W53098  28.886  17.568   8.985 -0.0901 -0.0624  0.1344
    1W        W53099   8.480  30.214   2.979 -0.0584 -0.3034 -0.0178
    1W        W53100   0.546   2.241   7.883 -0.1042  0.2368 -0.0993
    1W        W53101  13.833  16.624   0.991  0.2769  0.1974 -0.0268
    1W        W53102   1.672  22.206   0.333 -0.0849  0.1990 -0.2470
    1W        W53103  21.719  13.579   2.661  0.6279  0.0735 -0.0101
    1W        W53104  14.644   5.105   5.728  0.3277  0.1323 -0.2520
    1W        W53105  24.983  27.816   3.470  0.0755 -0.1263  0.2729
    1W        W53106  12.819   6.991   7.075  0.2850  0.0353 -0.1329
    1W        W53107  24.598  18.504   1.370 -0.1188 -0.2430 -0.1294
    1W        W53108   5.950  18.848   7.002  0.0072 -0.0764  0.3875
    1W        W53109  19.707  10.302   1.612  0.0425 -0.4291 -0.0992
    1W        W53110  12.822   7.498   2.216 -0.1053  0.1281 -0.2334
    1W        W53111  28.091   9.475   7.917 -0.1558 -0.0746  0.0805
    1W        W53112  27.958  23.346   0.809 -0.4064 -0.2870  0.3082
    1W        W53113  24.776   9.033   8.057  0.1395  0.0517 -0.1173
    1W        W53114  11.930   2.528   6.610  0.2374 -0.1753  0.0181
    1W        W53115   6.409  11.277   7.275  0.2865 -0.0191 -0.0775
    1W        W53116   1.732  21.026   0.498  0.1209 -0.2330 -0.3021
    1W        W53117  17.015  26.579   1.912  0.3299  0.0970 -0.1756
    1W        W53118  11.155  13.718   8.521  0.1801  0.3410 -0.3692
    1W        W53119  17.605  25.021   1.837  0.1600  0.1426 -0.1558
    1W        W53120  11.198  26.010   1.026  0.2991 -0.0225  0.1773
    1W        W53121  17.031   4.848   7.857 -0.0486  0.1063 -0.1431
    1W        W53122  25.351  13.855   0.789 -0.1015 -0.4970  0.0616
    1W        W53123   4.765  20.202   8.334 -0.1631 -0.1431 -0.2161
    1W        W53124  17.896  29.060   8.701 -0.0635 -0.1165  0.1950
    1W        W53125  15.433  27.512   6.214  0.2205 -0.0317 -0.2737
    1W        W53126  25.084  30.243   1.150  0.0334 -0.4711 -0.1973
    1W        W53127   4.846  27.549   7.193  0.0477 -0.0896  0.0264
    1W        W53128  12.891  23.082   7.999  0.1680 -0.0575 -0.1297
    1W        W53129   7.100  22.113   1.162  0.0575  0.0110 -0.1985
    1W        W53130  13.480  30.301   7.413  0.1235 -0.0344 -0.1666
    1W        W53131   6.281   3.243   1.662  0.1310  0.0512 -0.1704
    1W        W53132  12.935  22.925   0.097 -0.0005  0.4509 -0.3660
    1W        W53133   0.580  25.793   7.391  0.2710 -0.2547  0.0656
    1W        W53134  25.392  23.715   7.438 -0.1624 -0.1826 -0.2793
    1W        W53135   3.819  28.376   1.041 -0.1074 -0.3039 -0.1057
    1W        W53136  20.958  28.447   0.029 -0.1972  0.1058  0.0782
    1W        W53137   4.954  16.414   6.628  0.0091  0.2841  0.1670
    1W        W53138   9.394   1.984   3.240  0.0667 -0.2369 -0.1740
    1W        W53139  29.347  11.865   6.987  0.0571 -0.0225 -0.2633
    1W        W53140  20.478   6.821   2.856 -0.3791  0.1854 -0.1252
    1W        W53141  21.846   4.449   1.369  0.0411  0.2561  0.0403
    1W        W53142  26.810  12.769   1.597  0.1830 -0.2856 -0.2603
    1W        W53143  26.975   3.539   1.102 -0.3124 -0.0109  0.1598
    1W        W53144  26.157  25.645   1.180 -0.0674 -0.2257 -0.0071
    1W        W53145  22.118  16.497   6.583  0.0141 -0.2225  0.0857
    1W        W53146  21.727  24.081   7.660  0.0859  0.3879  0.3297
    1W        W53147  20.475  30.144   1.897 -0.0627  0.0739  0.0050
    1W        W53148  15.520  18.161   6.599  0.1101 -0.0550  0.2028
    1W        W53149  29.184  28.445   8.652 -0.1339  0.0445  0.0281
    1W        W53150  13.951  15.662   0.041  0.0295 -0.2036 -0.3516
    1W        W53151  12.765  28.670   2.998 -0.1448  0.0847  0.0100
    1W        W53152  22.838   8.115   6.954  0.2076 -0.0365  0.1589
    1W        W53153   2.599   9.575   8.590 -0.0521 -0.1811  0.4902
    1W        W53154  22.329  21.711   6.886 -0.2723 -0.0576  0.0612
    1W        W53155  17.834  24.090   7.339  0.2273  0.1519 -0.0207
    1W        W53156  24.412  11.323   7.737  0.2627  0.2543  0.1206
    1W        W53157  18.713   7.356   1.585  0.2310 -0.0811  0.1302
    1W        W53158   8.437   2.421   7.427 -0.1441  0.1643  0.2357
    1W        W53159  22.853   5.288   6.420 -0.0648 -0.2627 -0.3272
    1W        W53160  14.816   4.883   0.747  0.0371 -0.2666 -0.0908
    1W        W53161  15.009  11.993   1.093  0.1607  0.0955  0.0161
    1W        W53162  21.989  16.592   7.062  0.0626 -0.3492 -0.2973
    1W        W53163  25.627  11.995   0.286 -0.1298  0.0378  0.1685
    1W        W53164  27.479  26.435   1.037 -0.0424  0.2092  0.1303
    1W        W53165   2.510  11.038   7.564  0.2442 -0.0213  0.0557
    1W        W53166  13.533   5.808   2.910  0.2698  0.4086  0.3536
    1W        W53167   3.445  18.216   1.743  0.3133  0.2488  0.0895
    1W        W53168  22.415  25.055   8.988  0.0381  0.1567  0.1786
    1W        W53169  16.654   7.529   8.496  0.1715  0.0840 -0.0599
    1W        W53170   2.712  23.231   0.662 -0.4309 -0.0994 -0.1281
    1W        W53171  21.163  28.900   2.182 -0.0928  0.0903  0.2259
    1W        W53172  12.621   2.776   7.275 -0.0517 -0.1530  0.3787
    1W        W53173   7.683  20.656   8.872 -0.1279  0.1195  0.1144
    1W        W53174  21.809  24.564   7.881  0.2451 -0.1107  0.2282
    1W        W53175   8.215  18.921   1.074 -0.2504  0.0674 -0.1206
    1W        W53176  24.430   4.799   0.687  0.0876  0.0869 -0.0247
    1W        W53177  30.030  25.117   8.819 -0.2060 -0.2087 -0.2278
    1W        W53178  24.394  26.506   0.883 -0.0387  0.0897  0.3560
    1W        W53179  14.546  24.602   8.075  0.3262 -0.1004 -0.5521
    1W        W53180  24.189   3.312   1.895  0.3055 -0.2877 -0.2929
    1W        W53181   5.548  30.022   7.867 -0.1977  0.3240 -0.3091
    1W        W53182   8.376  26.631   0.074  0.1022  0.2620  0.1114
    1W        W53183  22.788   2.042   0.582  0.2875 -0.1039  0.0332
    1W        W53184  14.027  21.704   6.230  0.0198 -0.0019 -0.2711
    1W        W53185  26.675  28.257   3.133  0.0164 -0.1718 -0.1911
    1W        W53186  18.481  18.014   7.438  0.2004  0.3139  0.0467
    1W        W53187  18.418  12.335   1.599  0.2027 -0.1605  0.5114
    1W        W53188  17.903  12.120   9.216 -0.3058 -0.0904  0.4657
    1W        W53189  21.990  23.137   8.281 -0.1739  0.5722  0.3146
    1W        W53190   1.284  29.730   7.890 -0.0332  0.3367  0.1412
    1W        W53191   0.303  28.400   2.511  0.0452 -0.0709 -0.1137
    1W        W53192   6.342  21.342   6.231 -0.1326  0.2380  0.1574
    1W        W53193  11.761  15.319   6.789 -0.0834  0.0920  0.2306
    1W        W53194  21.850  17.890   0.092  0.1061 -0.2449  0.1510
    1W        W53195   5.408  10.281   2.267 -0.0519 -0.1746 -0.1905
    1W        W53196   1.041   2.125   8.662  0.1357  0.1627 -0.1086
    1W        W53197  26.562  18.392   1.167  0.1545  0.0938  0.1316
    1W        W53198  28.641  20.134   7.523  0.0737  0.0009  0.2438
    1W        W53199  24.698   4.309   8.916 -0.0474 -0.1451 -0.0782
    1W        W53200  22.680  12.467   8.717 -0.2337 -0.0700 -0.1293
    1W        W53201   6.904   4.543   2.482 -0.2951  0.1539  0.1392
    1W        W53202  13.036  13.987   3.010  0.0022 -0.1581  0.2682
    1W        W53203   9.210  29.538   7.233 -0.2748 -0.1331  0.3368
    1W        W53204  22.562  16.058   6.733  0.0451 -0.1977 -0.0560
    1W        W53205  24.672   7.487   8.736  0.0830  0.1707 -0.2744
    1W        W53206  25.007  28.870   0.239  0.1952 -0.0786  0.0894
    1W        W53207   2.436  15.187   7.734  0.0212  0.0944  0.1477
    1W        W53208   9.213  14.624   2.467 -0.0537  0.1773 -0.2759
    1W        W53209  19.450  13.245   1.741  0.1079 -0.0099  0.1742
    1W        W53210   9.272  26.451   7.673 -0.2321  0.0138 -0.3832
    1W        W53211  24.057   4.050   2.535 -0.3079  0.1742 -0.4201
    1W        W53212  29.378  28.348   0.710 -0.0786  0.0644  0.0356
    1W        W53213  18.530  25.676   2.539  0.0217  0.0487  0.1089
    1W        W53214   3.798  21.495   7.923 -0.1205  0.0921 -0.2160
    1W        W53215   2.239  17.632   9.078 -0.1510  0.1725  0.4855
    1W        W53216  12.143  24.476   2.288  0.2527  0.1183 -0.1890
    1W        W53217   1.161  16.972   0.100  0.3266 -0.0615  0.1973
    1W        W53218  16.735   0.966   8.899  0.0443  0.2119 -0.1629
    1W        W53219  21.983   5.579   2.111 -0.3606  0.0777  0.0069
    1W        W53220   3.452  24.074   9.142 -0.1177 -0.1246  0.1583
    1W        W53221  14.659  13.553   8.071 -0.3314  0.5114  0.1074
    1W        W53222  15.599  24.876   7.053 -0.1399 -0.1039  0.0766
    1W        W53223   4.140  25.186   6.972 -0.0568  0.3684  0.3223
    1W        W53224   7.715  26.507   7.905 -0.0534 -0.0817 -0.1021
    1W        W53225  23.293   0.930   6.549  0.1278  0.0025  0.0213
    1W        W53226  14.516   4.692   7.213 -0.4056  0.2500  0.1610
    1W        W53227   5.622  18.627   6.141 -0.2374 -0.0565  0.1328
    1W        W53228  25.802  26.139   8.672  0.3299  0.0942  0.1701
    1W        W53229  28.853   5.895   6.651 -0.0934  0.1325  0.2219
    1W        W53230   0.831   0.054   8.173  0.0408 -0.0716  0.4221
    1W        W53231  11.821  10.621   1.363 -0.3278  0.0995  0.4036
    1W        W53232   3.593  27.924   8.376  0.2165  0.0738  0.0808
    1W        W53233  12.787  12.852   2.556 -0.1292 -0.0997  0.0491
    1W        W53234   1.603  27.270   3.632  0.1051 -0.1447 -0.0825
    1W        W53235   6.046  28.659   8.212  0.0179 -0.3078  0.1762
    1W        W53236   6.148   2.079   1.243  0.0097 -0.0669  0.2741
    1W        W53237   1.137  25.223   0.081 -0.0924 -0.3521 -0.1263
    1W        W53238   6.127  21.510   7.522  0.0915  0.3039  0.1258
    1W        W53239  11.263  10.063   0.436  0.0079  0.0817  0.0133
    1W        W53240  25.488  28.970   8.680 -0.1235  0.4098 -0.1924
    1W        W53241  18.981   1.907   2.032 -0.3630  0.0303 -0.1340
    1W        W53242  13.344   0.460   6.619  0.1361  0.1336  0.3738
    1W        W53243  26.926   3.968   1.645  0.1744 -0.1248  0.1207
    1W        W53244   5.026  12.934   8.174 -0.1981 -0.2007  0.0757
    1W        W53245  27.318  10.610   8.818 -0.2519 -0.0329 -0.0934
    1W        W53246  11.261   5.806   6.870  0.1972  0.0373  0.0823
    1W        W53247   3.978   7.652   2.058  0.0034 -0.0416  0.0081
    1W        W53248   7.254  25.480   1.913 -0.0785  0.0077 -0.3134
    1W        W53249  22.170  24.527   0.256  0.2501  0.1126  0.0873
    1W        W53250   9.001   8.362   8.899 -0.0459 -0.0911  0.0039
    1W        W53251  18.068  11.306   8.433 -0.0732 -0.0757 -0.0660
    1W        W53252  14.624   9.768   0.339 -0.2017  0.1232 -0.1557
    1W        W53253  17.533  19.859   2.648  0.0101 -0.0155 -0.3075
    1W        W53254   8.832  18.976   6.353 -0.0009 -0.0386  0.0921
    1W        W53255   6.824   1.388   0.177 -0.3459 -0.3789  0.0423
    1W        W53256  27.039  10.325   7.388 -0.0413 -0.2536 -0.1089
    1W        W53257  19.709  22.480   7.545  0.0699  0.1680  0.1291
    1W        W53258   9.711  26.071   2.582 -0.1532 -0.2266 -0.3722
    1W        W53259   6.822  30.202   9.057 -0.2948  0.1482  0.0973
    1W        W53260  11.212   8.985   1.083  0.4780 -0.2635  0.0475
    1W        W53261   4.989  13.429   8.528  0.0081  0.5401  0.1573
    1W        W53262  21.409   9.868   7.961  0.1426  0.0507  0.0002
    1W        W53263  11.255  30.215   8.075 -0.2160 -0.3092  0.0575
    1W        W53264  28.714   2.444   3.022 -0.3631 -0.0919  0.1156
    1W        W53265   7.438  11.546   7.465 -0.0814 -0.1447  0.4345
    1W        W53266  26.278  18.128   0.836  0.1891 -0.0108 -0.1473
    1W        W53267  23.149  27.070   0.716  0.2479  0.2223  0.1403
    1W        W53268   4.165   0.721   7.581 -0.1516 -0.2738  0.0996
    1W        W53269  13.872   0.852   2.156 -0.0708  0.0575 -0.1592
    1W        W53270  30.084   2.126   1.926 -0.0758  0.0401 -0.1763
    1W        W53271   5.900   1.581   0.701  0.0743 -0.2237  0.0570
    1W        W53272  16.386   9.588   7.803  0.1360 -0.3520  0.1792
    1W        W53273  10.528   2.263   1.087  0.0057  0.1528 -0.0207
    1W        W53274  29.081  22.632   0.442 -0.3634  0.0432 -0.0443
    1W        W53275  20.228   0.760   1.705 -0.1792 -0.2747  0.2894
    1W        W53276   1.507  10.322   0.670  0.0147 -0.1237 -0.0462
    1W        W53277  14.540  21.247   6.499 -0.1918 -0.2916  0.1307
    1W        W53278  10.281  25.052   6.934  0.2017 -0.1298  0.2698
    1W        W53279  18.017  26.120   0.124  0.0917 -0.0730  0.0064
    1W        W53280  22.304  12.919   6.796  0.2266 -0.2332 -0.0173
    1W        W53281  10.436  14.375   2.231 -0.2449  0.1954  0.0453
    1W        W53282  25.024   5.192   8.455  0.5130  0.2226 -0.0271
    1W        W53283   0.090  15.952   9.125 -0.0843 -0.0125 -0.0747
    1W        W53284  20.474  23.269   8.859 -0.2288 -0.3685 -0.0766
    1W        W53285  22.390  18.712   0.593  0.2720 -0.0446 -0.0021
    1W        W53286  15.949  17.706   0.576 -0.0262 -0.2851 -0.0485
    1W        W53287  28.711  23.391   1.274  0.0423 -0.0191  0.1114
    1W        W53288  15.892  25.030   1.332  0.5376  0.3837  0.0196
    1W        W53289  28.576   9.234   2.493 -0.0736  0.0798  0.1223
    1W        W53290  13.299  23.349   8.751 -0.1857  0.0970  0.1182
    1W        W53291  20.358  19.903   1.429  0.0588 -0.1317 -0.4281
    1W        W53292   1.045   4.742   2.624  0.2078  0.1532 -0.0703
    1W        W53293   3.078   5.173   6.959 -0.0838 -0.1543  0.0024
    1W        W53294   1.707   9.855   0.542  0.4017 -0.2109 -0.0218
    1W        W53295   0.593  17.277   1.530 -0.0544 -0.1750 -0.2355
    1W        W53296  27.043   0.215   2.700  0.4341 -0.1403  0.0657
    1W        W53297  28.024  21.493   1.404  0.0899  0.3703  0.3313
    1W        W53298  12.289   3.042   2.035  0.1558 -0.3130  0.1662
    1W        W53299  12.238  17.662   1.869 -0.3284  0.0327  0.1615
    1W        W53300  15.171  29.906   7.448  0.2290 -0.1066 -0.1495
    1W        W53301  27.467  21.935   0.407  0.4332 -0.1597  0.4050
    1W        W53302  23.522  27.754   3.126 -0.1586  0.1468  0.1377
    1W        W53303  26.791   7.100   8.481 -0.1182 -0.0573 -0.0004
    1W        W53304  28.204  17.919   0.928  0.2099 -0.2346  0.1391
    1W        W53305   6.141  19.712   7.323 -0.0096 -0.1013  0.0377
    1W        W53306   4.341   4.559   7.824  0.2128 -0.1136  0.1473
    1W        W53307   6.081   4.161   9.227 -0.2340  0.0156  0.0520
    1W        W53308  20.658   4.036   2.084 -0.0238 -0.1643  0.1625
    1W        W53309  16.167   6.263   6.776 -0.2831  0.1559  0.4262
    1W        W53310  22.733  24.024   1.834  0.1993 -0.0970 -0.2749
    1W        W53311  25.248   4.392   2.380  0.1555  0.2278 -0.1477
    1W        W53312  25.526  18.256   6.269 -0.0926  0.0139 -0.0184
    1W        W53313   4.489  11.666   6.581 -0.0216 -0.0095 -0.1171
    1W        W53314   0.612   1.837   6.457  0.2335  0.1623  0.2627
    1W        W53315   0.955   5.854   9.178  0.2027  0.1070  0.1196
    1W        W53316  19.699  27.205   2.790  0.3493 -0.1241 -0.1391
    1W        W53317   8.210  20.923   8.602  0.0982  0.1279 -0.1341
    1W        W53318  11.965  24.108   0.564  0.0821  0.0887  0.1628
    1W        W53319  25.880   6.877   1.548  0.1916 -0.2906 -0.0484
    1W        W53320  17.029  22.576   0.158  0.0790  0.0206  0.0256
    1W        W53321  20.723  15.165   8.063 -0.4227 -0.1083 -0.2838
    1W        W53322   5.399  28.270   1.572 -0.2921 -0.1056 -0.0180
    1W        W53323  14.568   2.092   1.035 -0.2951  0.1374  0.1786
    1W        W53324  10.933   3.750   8.049  0.2725  0.0034  0.1188
    1W        W53325  27.507  16.783   6.269  0.2083 -0.2446  0.1910
    1W        W53326   6.010  29.732   8.676  0.1589 -0.2444 -0.0318
    1W        W53327  13.033  13.761   9.090  0.3658 -0.0897 -0.1828
    1W        W53328  10.720   1.030   2.873 -0.2216  0.1241  0.1255
    1W        W53329  29.984  21.567   8.974 -0.1073  0.0120  0.2094
    1W        W53330  20.335  11.543   1.091 -0.0200  0.0418 -0.1631
    1W        W53331  22.967  18.566   6.422 -0.1496  0.1481  0.0352
    1W        W53332  15.910  11.424   1.931 -0.0130 -0.0865  0.0015
    1W        W53333  22.630   6.157   2.061  0.0039 -0.0628  0.1535
    1W        W53334   4.535   4.597   7.334  0.1380  0.0741  0.2165
    1W        W53335  16.625   4.804   8.138  0.1661 -0.2843  0.1237
    1W        W53336   3.100  29.195   1.032  0.1599  0.2687  0.1332
    1W        W53337   9.987   0.240   7.883  0.2265  0.2683 -0.0178
    1W        W53338  30.281   5.527   0.331  0.1445 -0.1364  0.2090
    1W        W53339  29.122   3.279   1.816  0.0861  0.0047 -0.0734
    1W        W53340  19.646  29.797   9.029 -0.0623 -0.0064 -0.2789
    1W        W53341  18.423  12.164   8.438 -0.2077 -0.1063 -0.1811
    1W        W53342   5.587  10.049   1.158  0.2529 -0.1940  0.0441
    1W        W53343   8.670  17.907   2.051  0.2274  0.2179  0.0786
    1W        W53344  21.381   7.780   3.252 -0.1756 -0.0773  0.1468
    1W        W53345  19.923  12.396   2.151 -0.0621  0.0713  0.0027
    1W        W53346   9.166   5.452   1.391 -0.1195 -0.0217 -0.0193
    1W        W53347   1.749  17.467   6.813 -0.1720  0.0364 -0.0998
    1W        W53348   3.031  12.052   8.753 -0.3247  0.1110 -0.1982
    1W        W53349   8.876  19.347   0.353  0.1760 -0.0401  0.2209
    1W        W53350  28.250  25.382   0.122 -0.1610  0.1712  0.2500
    1W        W53351   7.795  17.455   5.796 -0.3291  0.2395  0.1032
    1W        W53352   6.222  29.952   1.303  0.1466 -0.0843 -0.0504
    1W        W53353   8.629   6.541   8.780  0.0645 -0.1256 -0.3106
    1W        W53354  25.577  30.137   2.481 -0.2789 -0.1571 -0.1585
    1W        W53355   4.295   3.789   2.613  0.0771  0.1725  0.1682
    1W        W53356  20.947  16.325   6.839 -0.1405 -0.2998  0.0108
    1W        W53357  20.601   8.132   1.359 -0.0885  0.1118 -0.0207
    1W        W53358  18.793  10.764   8.403 -0.0023 -0.1329  0.1987
    1W        W53359  26.993   3.206   1.970  0.3272  0.0717  0.3146
    1W        W53360   9.711  12.985   8.295 -0.0144 -0.1316  0.3391
    1W        W53361  19.053  13.446   0.513 -0.2775  0.1377  0.1764
    1W        W53362   6.414   0.685   7.883  0.0092  0.1075 -0.3867
    1W        W53363  14.764  18.238   1.509 -0.3424 -0.2515  0.1521
    1W        W53364   5.963   0.471   1.045  0.1723 -0.1584  0.2110
    1W        W53365  15.456  28.607   9.270 -0.4506  0.0685 -0.2604
    1W        W53366  19.208  26.349   1.043  0.0544 -0.3649  0.0782
    1W        W53367  23.002   4.129   1.696  0.0779  0.0952 -0.2882
    1W        W53368  24.377   0.742   2.143 -0.0889 -0.4176 -0.2960
    1W        W53369   9.999   2.458   8.395  0.1399  0.1116  0.0824
    1W        W53370   6.773   7.124   8.142  0.0268  0.1977  0.0017
    1W        W53371  24.060  28.895   0.461  0.0224 -0.0430  0.0926
    1W        W53372   3.275  24.249   2.418 -0.0343 -0.1645  0.2082
    1W        W53373  24.562  18.068   0.654 -0.0828  0.1222  0.2553
    1W        W53374  15.402   9.483   0.616  0.0300 -0.1234 -0.2478
    1W        W53375   8.918  30.261   2.342 -0.2623  0.2678  0.4353
    1W        W53376  21.836   5.561   3.096 -0.0037 -0.2003 -0.0286
    1W        W53377  25.542  10.233   0.698  0.0475  0.2012  0.1067
    1W        W53378  10.387   9.021   2.938  0.2908 -0.0845 -0.2864
    1W        W53379  26.063   3.027   3.828  0.1313  0.0760  0.0578
    1W        W53380  22.831  19.442   6.847  0.1048  0.1734 -0.0364
    1W        W53381   4.012  29.182   8.176  0.1259  0.1445 -0.1651
    1W        W53382  22.438   6.990   0.708 -0.0122  0.4780  0.1111
    1W        W53383  21.587  17.814   7.998  0.1289  0.0437 -0.0548
    1W        W53384  21.985  12.988   5.671  0.0549 -0.1002 -0.1081
    1W        W53385  16.832  13.330   0.408 -0.0189  0.0247  0.1370
    1W        W53386  25.627   1.117   7.913 -0.3361 -0.0006  0.2048
    1W        W53387   2.003  16.548   0.142 -0.0815 -0.0152 -0.3269
    1W        W53388   4.594   1.601   7.648  0.2423 -0.4408 -0.0897
    1W        W53389  16.455  18.370   6.296 -0.0450  0.1755 -0.2072
    1W        W53390   2.112   7.754   2.498  0.0348 -0.2954 -0.4514
    1W        W53391  14.589  13.322   0.846  0.1190  0.0265 -0.0140
    1W        W53392  14.802  25.347   8.644 -0.3763 -0.3280  0.1173
    1W        W53393  27.551  10.217   7.228 -0.2883 -0.1023  0.0755
    1W        W53394   4.583  11.545   1.939  0.1749  0.2339 -0.0193
    1W        W53395  17.060   3.864   0.774  0.1507  0.0252  0.2012
    1W        W53396  28.696  10.571   2.103  0.1514  0.1112  0.3077
    1W        W53397  27.360  16.330   7.229 -0.1796 -0.0245 -0.2787
    1W        W53398  17.652   7.919   0.262 -0.0792  0.1364  0.2997
    1W        W53399  25.045  29.210   9.042  0.1025 -0.2854 -0.2780
    1W        W53400  10.146   2.743   7.931 -0.2578 -0.0309 -0.0824
    1W        W53401   8.678   9.596   2.492  0.0353 -0.3421 -0.2174
    1W        W53402  10.177   5.344   2.321 -0.2973  0.0540 -0.2206
    1W        W53403  24.598  27.230   0.416  0.1165 -0.0755 -0.2138
    1W        W53404   8.372  23.918   0.383  0.0038 -0.2334 -0.3296
    1W        W53405  24.745  26.035   0.973  0.1367 -0.1254  0.2239
    1W        W53406   9.607   0.222   7.553 -0.2778 -0.3598 -0.1857
    1W        W53407   1.231   1.527   8.052 -0.0458 -0.1052  0.2105
    1W        W53408  30.274   0.604   0.465 -0.4381 -0.2095 -0.0758
    1W        W53409  28.872  10.542   7.368  0.1354 -0.2259  0.0179
    1W        W53410  20.698  19.093   5.497  0.2261  0.0137 -0.1794
    1W        W53411   0.375   8.231   9.137  0.2067  0.0116 -0.1133
    1W        W53412  11.761  23.757   6.747  0.0907 -0.3031 -0.0358
    1W        W53413  28.205  21.035   7.021  0.1494  0.1322 -0.6003
    1W        W53414   1.247   1.045   8.352  0.1914  0.0827  0.2287
    1W        W53415  16.579  21.964   2.115  0.0359  0.0726 -0.2166
    1W        W53416  20.196  27.559   0.615 -0.1023 -0.1773 -0.1762
    1W        W53417  11.482  16.316   8.753 -0.0880  0.1094  0.1580
    1W        W53418   3.032   9.366   8.383  0.0057 -0.3118 -0.1362
    1W        W53419  21.334  13.488   8.038  0.2881  0.1807 -0.1540
    1W        W53420  27.353  26.611   2.769 -0.1653 -0.1622 -0.1434
    1W        W53421  26.132   9.464   2.011 -0.2541 -0.1995  0.3977
    1W        W53422   4.669  21.969   6.835 -0.0968  0.0592 -0.0862
    1W        W53423  14.646   3.414   7.159  0.2602  0.0512  0.2281
    1W        W53424  27.949  18.855   0.302  0.0852  0.1553 -0.1267
    1W        W53425  23.702  11.057   1.030 -0.1280  0.0264  0.0452
    1W        W53426  12.244   7.165   2.868  0.1674  0.2561 -0.3298
    1W        W53427  27.028  11.293   7.051 -0.0059  0.0216  0.1466
    1W        W53428  21.420  19.203   1.772 -0.0878 -0.1174 -0.0288
    1W        W53429   1.016   2.952   0.514 -0.0591 -0.0001  0.1322
    1W        W53430   8.846  27.282   1.745  0.0143 -0.1776  0.0165
    1W        W53431  13.458   0.332   7.817  0.2373 -0.0146 -0.0832
    1W        W53432   5.905  20.149   7.506  0.1262  0.1939  0.1948
    1W        W53433  11.111  11.256   8.375 -0.1382 -0.0997  0.2073
    1W        W53434  19.179  15.353   0.488 -0.0522  0.1760  0.0144
    1W        W53435   4.119  17.823   5.971  0.2820 -0.0436 -0.2727
    1W        W53436  20.451  16.997   7.147 -0.1789  0.0728 -0.0429
    1W        W53437  19.713   3.033   8.220 -0.1463 -0.0316 -0.1083
    1W        W53438   3.979  14.531   8.316 -0.2124 -0.0982 -0.0245
    1W        W53439  19.643  15.302   1.511 -0.0700 -0.1895  0.0916
    1W        W53440   1.983  16.694   8.947 -0.0658  0.4551  0.0215
    1W        W53441  13.426  11.671   2.965  0.2819  0.2481 -0.3912
    1W        W53442  11.527  21.491   8.649  0.2330 -0.1084 -0.2313
    1W        W53443  26.547  18.370   7.617 -0.2430  0.3035  0.1853
    1W        W53444  29.595   0.795   9.069 -0.0531  0.2502 -0.1770
    1W        W53445  15.093  19.080   8.534 -0.2911 -0.1638  0.1341
    1W        W53446  13.214   8.066   0.394 -0.0641 -0.0200 -0.2291
    1W        W53447  26.208   8.240   8.741  0.0823  0.3195 -0.0205
    1W        W53448  10.412  13.483   3.157  0.1520 -0.0850 -0.0703
    1W        W53449   0.809  13.314   7.116 -0.0185 -0.0058  0.1966
    1W        W53450  15.231  28.636   6.319  0.0731 -0.0251  0.1478
    1W        W53451   6.919  10.921   9.148  0.2822  0.2497  0.4379
    1W        W53452   1.724  12.960   0.307  0.0543 -0.1582 -0.0072
    1W        W53453  23.205  22.018   1.489 -0.2333 -0.0071  0.0518
    1W        W53454   9.313  12.219   2.861 -0.0402  0.0565 -0.0984
    1W        W53455  11.023  16.909   0.818  0.3029  0.0320 -0.0756
    1W        W53456  10.121  14.539   7.842  0.1547 -0.0277  0.2659
    1W        W53457  13.830  28.648   8.939  0.0996 -0.0858  0.1573
    1W        W53458   2.457  14.313   9.222 -0.1435 -0.1724  0.1527
    1W        W53459  16.675  24.162   1.834 -0.4228  0.0259  0.2420
    1W        W53460   7.526  28.921   7.669  0.1718  0.0054 -0.1645
    1W        W53461  21.418  15.179   5.962  0.2144 -0.1995 -0.1464
    1W        W53462   1.624  29.698   8.256 -0.2749  0.2042  0.0188
    1W        W53463   6.773  22.123   8.782 -0.2462  0.0322 -0.0668
    1W        W53464  16.764  16.298   1.748  0.0640  0.1401 -0.0297
    1W        W53465  24.696  12.323   0.618 -0.2980  0.0967  0.2044
    1W        W53466  15.165  29.102   8.989 -0.0252  0.0321 -0.2758
    1W        W53467   9.251  29.933   8.188 -0.1031  0.2322  0.3331
    1W        W53468  29.135  30.292   2.403  0.2357 -0.1628 -0.0706
    1W        W53469  26.354   6.626   2.607 -0.2828 -0.1072  0.2067
    1W        W53470  28.961   4.995   8.818  0.1906 -0.1530  0.1023
    1W        W53471  20.286  21.638   1.829 -0.2070  0.3036 -0.1259
    1W        W53472  27.685  16.549   7.725  0.2676  0.0793 -0.0085
    1W        W53473  14.041  19.569   8.116 -0.0703 -0.3419  0.1943
    1W        W53474  24.580  11.855   6.428  0.0373 -0.0225 -0.2789
    1W        W53475  11.991  11.448   6.651  0.1631 -0.3278  0.1461
    1W        W53476  16.446  13.268   7.556  0.2271  0.3565 -0.1315
    1W        W53477   1.531   8.688   8.657  0.0885  0.1446 -0.1327
    1W        W53478   2.544   3.457   7.524 -0.0143  0.2272 -0.0432
    1W        W53479  18.772  25.890   8.502 -0.0958 -0.0899  0.1497
    1W        W53480  18.291  12.023   2.859 -0.0304 -0.0270  0.0021
    1W        W53481  26.225  11.005   8.045 -0.3149 -0.1968  0.1145
    1W        W53482  16.444  12.979   0.501 -0.3809 -0.0314  0.1389
    1W        W53483  21.591  18.293   9.189 -0.0248 -0.0089  0.1333
    1W        W53484   2.702  11.686   0.298 -0.1540 -0.1290  0.2718
    1W        W53485   4.796  27.921   0.128 -0.1363  0.0753  0.3340
    1W        W53486  18.715  20.572   6.803  0.1449  0.0793 -0.1402
    1W        W53487  22.714   7.070   3.259 -0.2095  0.1841 -0.0460
    1W        W53488  27.978   7.036   2.892 -0.2828 -0.2590 -0.0694
    1W        W53489  25.851  13.706   7.347 -0.1844 -0.0773 -0.0556
    1W        W53490  26.199  20.494   6.554 -0.1999 -0.1234 -0.3859
    1W        W53491  20.797   6.351   6.895  0.0776 -0.0805  0.0802
    1W        W53492  26.459  18.572   0.678 -0.1146  0.3116  0.1810
    1W        W53493  20.336  29.690   8.400 -0.1370 -0.0366  0.0980
    1W        W53494  28.767  28.205   1.403  0.2311  0.1627  0.0541
    1W        W53495   4.631   3.245   1.232  0.1281 -0.1449 -0.0517
    1W        W53496   5.881  10.289   6.485 -0.2335  0.0811  0.0909
    1W        W53497   5.069  29.841   3.163 -0.3212  0.0607  0.0820
    1W        W53498  20.432  27.795   1.891 -0.0553 -0.4838  0.3095
    1W        W53499   1.384   4.459   1.692  0.1413 -0.2393  0.2068
    1W        W53500  25.110  29.125   1.495  0.2723  0.0799 -0.1829
    1W        W53501   7.237   6.729   2.910  0.1368 -0.1056  0.1924
    1W        W53502  20.456  24.272   1.718  0.1425 -0.2624  0.2146
    1W        W53503  17.911   9.420   0.363  0.1848 -0.1063 -0.3147
    1W        W53504  23.397  20.148   7.077  0.1430  0.2836  0.0092
    1W        W53505  28.024  12.655   8.843  0.2160 -0.3256  0.1879
    1W        W53506  20.233   9.180   8.048  0.0931  0.0305  0.4196
    1W        W53507   2.840  27.729   7.921  0.0144  0.1686  0.1585
    1W        W53508   9.389   5.640   0.956  0.2341 -0.1228  0.0734
    1W        W53509  17.661  24.849   0.085  0.2352  0.0124  0.0119
    1W        W53510  15.595  18.539   6.865 -0.0342  0.2125  0.0295
    1W        W53511   2.727  18.393   8.889 -0.2218 -0.3037  0.1522
    1W        W53512   5.920  14.843   1.009 -0.0064  0.2365  0.0491
    1W        W53513  16.554   1.829   3.255 -0.2437 -0.3097  0.0902
    1W        W53514  21.818   2.547   8.494  0.1856 -0.1609 -0.0108
    1W        W53515  29.118  13.605   7.673 -0.0069  0.0290 -0.1770
    1W        W53516  10.708  23.300   1.597 -0.1902  0.0838  0.2017
    1W        W53517  27.547   0.341   0.454 -0.5055 -0.0821 -0.1326
    1W        W53518  10.698   9.697   2.204 -0.3745 -0.0211  0.0023
    1W        W53519  28.798  15.961   1.401 -0.2065 -0.0779  0.2486
    1W        W53520  16.277  13.246   8.048  0.2719 -0.0608  0.0627
    1W        W53521   7.054  26.193   9.085 -0.4189  0.2095  0.0538
    1W        W53522   7.463  22.113   0.351 -0.2799  0.0588 -0.4346
    1W        W53523   1.872   3.417   8.520 -0.0708 -0.1740 -0.1159
    1W        W53524   5.839  25.593   8.968  0.1916  0.2100 -0.1389
    1W        W53525  18.473   5.885   6.697 -0.0700  0.0990  0.0548
    1W        W53526  22.914   9.070   6.679 -0.2468 -0.0510 -0.2658
    1W        W53527   7.511  21.375   1.290 -0.2885 -0.0019 -0.1451
    1W        W53528  25.142  25.933   0.252 -0.0851 -0.1359 -0.0308
    1W        W53529   2.749   5.513   0.768 -0.0198 -0.3994  0.2069
    1W        W53530  30.323  13.516   1.621  0.0385  0.3477 -0.1484
    1W        W53531  17.427  11.893   9.124 -0.3737 -0.1878 -0.1751
    1W        W53532  25.287  11.475   1.658  0.0013 -0.1841 -0.1796
    1W        W53533  14.330  19.534   6.591  0.1840 -0.0120 -0.1954
    1W        W53534  13.935  29.044   1.118  0.1853  0.2504 -0.1297
    1W        W53535   8.868  22.231   6.481 -0.0633 -0.2080  0.2110
    1W        W53536  29.627  14.068   8.090  0.0864  0.2077  0.1786
    1W        W53537  11.588  24.876   1.854  0.2637 -0.1012 -0.1618
    1W        W53538  27.899   4.476   0.619  0.1365 -0.0462 -0.3187
    1W        W53539  29.620   3.551   7.631  0.0731 -0.1590  0.0247
    1W        W53540  10.546  11.426   0.439  0.0216 -0.4009  0.2108
    1W        W53541   9.803  10.384   0.298 -0.2276  0.0860 -0.1005
    1W        W53542  28.398  10.613   0.993  0.4215 -0.1554 -0.1636
    1W        W53543  25.849   9.647   6.246  0.0698 -0.2977  0.1084
    1W        W53544   9.673   4.379   2.583  0.0754  0.1588 -0.4510
    1W        W53545   5.903  19.028   8.415 -0.1227  0.0340 -0.3352
    1W        W53546  15.695  15.679   1.168  0.0175  0.1627 -0.0666
    1W        W53547  22.767  21.247   6.075 -0.1979  0.1723  0.0835
    1W        W53548   3.056  18.744   8.081 -0.1007  0.3556 -0.0853
    1W        W53549  13.212   1.120   8.146  0.0937 -0.2551  0.0987
    1W        W53550  15.277  10.624   6.778  0.2905  0.1205  0.2562
    1W        W53551  13.935   1.788   2.350  0.0960 -0.0652  0.0909
    1W        W53552  20.420   8.453   0.245 -0.4717  0.0336  0.2582
    1W        W53553  11.854  22.751   6.830  0.2318 -0.0868  0.1140
    1W        W53554  12.224   7.727   0.320  0.0260  0.1761 -0.0416
    1W        W53555   6.928   1.026   1.413 -0.1461  0.0673 -0.1770
    1W        W53556  24.519  10.158   7.743 -0.0293  0.0338  0.0213
    1W        W53557   8.528  20.134   1.476 -0.0922 -0.0424 -0.0243
    1W        W53558  17.153   6.231   6.615  0.0588  0.0336  0.1472
    1W        W53559   6.632  26.361   0.597 -0.0191 -0.1592 -0.0040
    1W        W53560  12.010  27.766   0.804  0.2354  0.0222  0.1678
    1W        W53561   9.510   1.329   1.666  0.1466 -0.1561 -0.2114
    1W        W53562   4.039   0.061   3.109  0.1658  0.0247 -0.0791
    1W        W53563   6.954  15.672   7.572 -0.1901  0.2391 -0.1052
    1W        W53564  18.842  26.198   6.547  0.1641 -0.0721 -0.2602
    1W        W53565  13.912  14.577   2.607  0.1373 -0.1895  0.1379
    1W        W53566  26.231  15.047   2.317 -0.0916  0.1385 -0.4374
    1W        W53567  28.998   6.260   9.239  0.0368  0.2128  0.1421
    1W        W53568   0.269  17.186   0.675 -0.2111  0.0939 -0.1764
    1W        W53569  27.103  22.010   7.217 -0.1228 -0.0108  0.0399
    1W        W53570  18.586   0.810   6.027 -0.1036  0.3109 -0.1690
    1W        W53571  23.806  12.226   8.852 -0.1054  0.1498 -0.0585
    1W        W53572  11.504   1.541   7.683  0.0188 -0.0647 -0.1963
    1W        W53573  10.747   7.926   8.564  0.2812 -0.1374  0.1937
    1W        W53574  26.796  22.113   1.387  0.1750  0.0122 -0.2658
    1W        W53575  26.494  26.554   8.201  0.1488 -0.0155  0.1488
    1W        W53576  25.573   3.500   7.946 -0.0859  0.0956  0.0180
    1W        W53577  26.692  28.460   8.953  0.2924  0.2655 -0.0844
    1W        W53578   1.657   6.333   8.369  0.2368 -0.0030 -0.0320
    1W        W53579   2.157  27.896   7.819  0.1062 -0.2215 -0.1235
    1W        W53580   3.014   4.931   6.284 -0.2727 -0.0275  0.3973
    1W        W53581  21.085  10.871   6.663 -0.1601 -0.0005  0.0945
    1W        W53582  22.954  24.571   6.749 -0.0724  0.0309 -0.0477
    1W        W53583   2.125  26.249   1.806 -0.2060  0.2405 -0.1817
    1W        W53584  16.496   7.714   8.939 -0.0161 -0.2214 -0.0044
    1W        W53585  27.775   5.099   7.908  0.0830  0.3330  0.1856
    1W        W53586  26.033   5.979   3.256  0.3324 -0.3740  0.3017
    1W        W53587   6.682  14.457   8.353  0.1039 -0.1378 -0.1338
    1W        W53588   2.960  27.745   0.240  0.3417  0.2608  0.1496
    1W        W53589  23.990  24.277   6.316  0.0221  0.0207 -0.2791
    1W        W53590  19.189  28.674   1.815  0.2858  0.0395 -0.0743
    1W        W53591  16.667  17.105   2.856  0.1437  0.1480  0.2053
    1W        W53592  29.472  10.035   2.581  0.0713 -0.1170  0.4137
    1W        W53593  18.592  17.443   6.050  0.0157 -0.0511  0.1166
    1W        W53594  16.959  21.406   6.434 -0.0477  0.0192  0.0164
    1W        W53595  19.102  26.169   8.813 -0.0422 -0.0471 -0.0152
    1W        W53596  21.660   3.524   0.365  0.2408 -0.0451 -0.0343
    1W        W53597   2.190   4.090   2.294 -0.2106 -0.0200 -0.1692
    1W        W53598   7.256  11.170   1.208 -0.5509 -0.2793  0.2879
    1W        W53599   6.830   3.801   7.814 -0.1295 -0.1658  0.1478
    1W        W53600   3.144   4.303   0.968  0.0274  0.0372 -0.1342
    1W        W53601  25.005   6.788   6.363 -0.0543 -0.0108 -0.0404
    1W        W53602   8.878  20.862   6.668  0.0903  0.0756 -0.0624
    1W        W53603  14.436  21.958   7.317 -0.2906 -0.1166  0.0430
    1W        W53604   1.032   1.210   1.407  0.0850  0.1030 -0.2141
    1W        W53605   7.595  17.167   7.863 -0.3336 -0.0195 -0.0543
    1W        W53606  25.844  23.897   7.312  0.1213  0.2492  0.1617
    1W        W53607  20.433   7.969   7.806 -0.0695 -0.3389  0.0461
    1W        W53608  18.105  18.011   7.780 -0.0281  0.0574  0.0595
    1W        W53609  16.893  11.222   8.707  0.4548  0.0661  0.0641
    1W        W53610  16.528  19.470   6.390  0.1122  0.2181  0.1198
    1W        W53611  15.260  24.025   0.096  0.0112 -0.0291  0.2159
    1W        W53612  27.105   9.032   1.805  0.1485  0.0445  0.0082
    1W        W53613  16.562  21.512   5.981 -0.1505  0.3778 -0.0612
    1W        W53614  16.653  24.022   8.716 -0.0662  0.2232  0.1419
    1W        W53615  29.269  22.255   7.192  0.1340 -0.1432  0.0616
    1W        W53616  22.649  19.910   7.769  0.0992 -0.1615  0.2650
    1W        W53617   8.588  26.178   8.877 -0.0258 -0.0516 -0.1327
    1W        W53618  25.456   3.340   2.893 -0.1560 -0.0360 -0.0543
    1W        W53619  30.168  29.832   2.704  0.2022  0.1461 -0.1727
    1W        W53620  12.794  13.929   8.148 -0.2960  0.5112  0.0960
    1W        W53621   2.667  18.203   0.135  0.0532 -0.3082  0.1033
    1W        W53622  20.883   0.721   0.758 -0.3875 -0.0390  0.3629
    1W        W53623  26.923  20.153   7.553  0.0018 -0.3785 -0.1515
    1W        W53624  10.401   5.114   7.542  0.2211 -0.1133 -0.0644
    1W        W53625   8.216  16.025   6.750 -0.2883  0.1464  0.1809
    1W        W53626  15.329  16.210   0.313 -0.0550 -0.2096  0.1464
    1W        W53627  27.271  28.793   0.223  0.2447 -0.0713  0.0442
    1W        W53628  21.405   0.872   1.438 -0.1920 -0.1607 -0.2210
    1W        W53629   1.235  24.266   0.293  0.1440 -0.4956  0.2101
    1W        W53630  12.255  11.498   7.899 -0.0269  0.0926  0.0911
    1W        W53631   6.471  25.056   8.211  0.1142 -0.2078 -0.0346
    1W        W53632  13.933   0.762   0.983  0.1205  0.0130 -0.2575
    1W        W53633  16.064   4.018   8.159  0.0497 -0.0499  0.1951
    1W        W53634  27.527  24.160   1.164  0.0937  0.1594  0.0690
    1W        W53635  20.074  28.819   1.746 -0.0620 -0.1090 -0.1955
    1W        W53636  23.784  24.035   1.775 -0.3492  0.2352  0.1194
    1W        W53637  26.380  30.129   2.707  0.0511  0.0249 -0.3408
    1W        W53638  20.719  27.106   8.012  0.2227 -0.1431  0.0179
    1W        W53639   0.933  23.221   7.686 -0.4028  0.1563 -0.0480
    1W        W53640  15.289  30.162   1.788 -0.1461 -0.3020 -0.1281
    1W        W53641  28.985  25.794   6.879 -0.2318 -0.0115  0.1411
    1W        W53642  14.999   9.806   7.419 -0.4551 -0.0852 -0.1234
    1W        W53643   8.799  23.408   9.217 -0.4047  0.0923  0.2665
    1W        W53644  15.150  14.156   1.104  0.1433  0.0150  0.0435
    1W        W53645   2.128  23.752   7.693  0.0449  0.3150 -0.1410
    1W        W53646   4.146   2.147   9.131  0.0603  0.0811  0.0392
    1W        W53647  28.975  20.290   0.429  0.1158 -0.3624  0.0013
    1W        W53648  28.511   6.074   8.508  0.2321 -0.1662  0.1373
    1W        W53649  24.071   0.914   7.286 -0.3635  0.1036 -0.0618
    1W        W53650  21.358  25.141   7.825  0.0108  0.4145  0.1572
    1W        W53651  23.723   1.957   8.529 -0.0813  0.1490 -0.1312
    1W        W53652  10.946  17.956   9.028 -0.3780 -0.2145  0.3734
    1W        W53653  16.550  19.275   1.998 -0.1844  0.1794  0.0273
    1W        W53654  16.392  26.123   0.418  0.2305  0.0712 -0.1253
    1W        W53655  16.805   5.607   6.195 -0.3729  0.0225 -0.2700
    1W        W53656  21.170   6.489   8.694  0.1125  0.3232  0.0586
    1W        W53657  26.694  17.865   0.690 -0.3295  0.1232 -0.0109
    1W        W53658  18.368   4.023   6.004  0.1841  0.1273 -0.1811
    1W        W53659  27.074  16.424   7.730  0.1491 -0.0161 -0.1281
    1W        W53660   8.148  20.253   8.778 -0.0323 -0.1364 -0.1427
    1W        W53661   9.679  22.413   7.508 -0.1654 -0.0123  0.2155
    1W        W53662  11.699  10.783   3.031 -0.0577  0.0736 -0.1185
    1W        W53663  14.115  15.089   6.830 -0.1564  0.0267  0.3513
    1W        W53664  24.448  25.201   3.525 -0.0808  0.3601  0.3345
    1W        W53665  13.440  15.720   1.697  0.1164  0.0066 -0.1711
    1W        W53666  28.577  27.589   2.071 -0.0589  0.0334 -0.0143
    1W        W53667  25.332  12.630   8.095 -0.0852 -0.1307 -0.0543
    1W        W53668  26.700  25.016   7.644 -0.0017 -0.1138  0.0597
    1W        W53669  11.926   5.380   2.636  0.3245  0.1728 -0.1066
    1W        W53670  17.961  26.748   6.968 -0.0311 -0.0155 -0.0132
    1W        W53671   5.934   1.859   1.838 -0.2939 -0.3528  0.2591
    1W        W53672  27.052   6.289   7.391 -0.1079 -0.0055 -0.3005
    1W        W53673   7.716   8.804   2.499  0.2960  0.0627  0.2139
    1W        W53674   3.269  24.229   7.523  0.1505  0.2783  0.1230
    1W        W53675   4.433  21.004   6.946  0.1982 -0.0544 -0.0336
    1W        W53676  26.909  10.060   2.441 -0.0518 -0.0599  0.3397
    1W        W53677  16.266  18.412   8.053  0.0433 -0.1193  0.1331
    1W        W53678  16.691  18.340   1.634  0.2256  0.0281 -0.2969
    1W        W53679   1.337  16.675   0.888 -0.1916  0.0845  0.0290
    1W        W53680   2.521  28.497   2.036 -0.0562 -0.0394  0.0927
    1W        W53681  10.655  23.802   0.538  0.0237 -0.0910 -0.1305
    1W        W53682  24.439  22.889   7.864  0.0940 -0.1744 -0.2856
    1W        W53683  12.669  19.096   7.443 -0.1393  0.1936 -0.1681
    1W        W53684  17.018   3.990   6.822 -0.0286  0.0864  0.0895
    1W        W53685  29.585  11.195   0.643 -0.3313 -0.1533 -0.2414
    1W        W53686  21.620  29.829   8.644 -0.0332  0.1604 -0.4560
    1W        W53687  30.055   3.234   8.939 -0.2357 -0.0225 -0.0458
    1W        W53688   8.168   5.608   7.630 -0.2542 -0.0217  0.0245
    1W        W53689  11.117   3.589   2.391  0.5565  0.0521 -0.3985
    1W        W53690  18.258  18.937   6.395  0.4865 -0.1208  0.0600
    1W        W53691  14.241  18.659   8.516 -0.0796  0.1468  0.1844
    1W        W53692   0.739  19.601   8.729  0.0654 -0.1793  0.0182
    1W        W53693  23.999   2.306   1.348  0.0185  0.1207 -0.2408
    1W        W53694  15.373  26.521   8.697 -0.0353  0.2775 -0.1538
    1W        W53695  25.484   8.285   7.224 -0.1746  0.1486 -0.0478
    1W        W53696  24.781   1.949   0.116 -0.0568  0.0414  0.0556
    1W        W53697   4.333  13.148   9.136 -0.1827  0.1475 -0.0101
    1W        W53698  15.999   7.646   0.018 -0.3571  0.0115  0.1760
    1W        W53699  11.246   1.441   8.989  0.2725  0.0814  0.0053
    1W        W53700  11.131  13.141   1.664  0.0353 -0.0915 -0.2384
    1W        W53701   1.836  10.315   1.876 -0.0967  0.3165  0.1909
    1W        W53702  23.093   9.705   7.980 -0.1976  0.0283  0.1733
    1W        W53703  24.823  26.844   0.636 -0.0703  0.4652 -0.3587
    1W        W53704  17.850  13.297   7.487  0.1259 -0.0038 -0.1459
    1W        W53705   9.354   3.241   0.025 -0.1289 -0.5824  0.2161
    1W        W53706  18.369  11.744   8.150 -0.0059 -0.1738  0.0386
    1W        W53707  11.511   6.618   1.869 -0.0536 -0.0581 -0.0499
    1W        W53708  22.302   3.900   8.871  0.0669 -0.0672 -0.2357
    1W        W53709  25.700  26.782   2.654  0.1245  0.2944  0.1160
    1W        W53710  23.146  15.630   8.692 -0.1217 -0.2458 -0.0152
    1W        W53711  11.845   2.580   0.301  0.0059 -0.0376 -0.1439
    1W        W53712   8.914  15.321   0.431  0.2572 -0.0218  0.0240
    1W        W53713  14.097   1.046   0.040 -0.1383  0.1852  0.0691
    1W        W53714   2.951  30.169   9.099  0.0925 -0.1718 -0.2156
    1W        W53715  21.921  30.019   0.613  0.2436 -0.1488 -0.2595
    1W        W53716   6.239  11.410   0.361 -0.0049 -0.1019  0.0010
    1W        W53717   9.189  20.038   8.665 -0.0379  0.2974 -0.1226
    1W        W53718   3.772   3.460   7.423  0.0488  0.2334 -0.0557
    1W        W53719  14.896  15.068   3.876 -0.1481  0.1574  0.0603
    1W        W53720  15.987  17.383   2.162  0.1033 -0.1378 -0.1983
    1W        W53721   1.374  20.672   0.097 -0.0881 -0.1320  0.0651
    1W        W53722  28.866  23.607   7.537  0.0863  0.0412 -0.3380
    1W        W53723   3.789   5.657   2.248  0.0749  0.0761  0.2130
    1W        W53724   8.571   7.553   7.713  0.1700  0.0533 -0.0702
    1W        W53725   9.240   3.597   7.364  0.0193  0.0887  0.3265
    1W        W53726   7.060  26.642   1.055 -0.0702  0.0136 -0.0362
    1W        W53727  11.940  29.937   1.569  0.1533  0.3838  0.3805
    1W        W53728  10.983  26.378   2.068  0.0435  0.1245 -0.1761
    1W        W53729  24.142   2.597   7.873  0.0027 -0.2104  0.1967
    1W        W53730  12.834  20.821   1.533 -0.2940  0.2349 -0.0247
    1W        W53731  23.890  23.669   8.089  0.0397 -0.1407 -0.0317
    1W        W53732   9.554  19.631   8.451  0.0800  0.0923 -0.0021
    1W        W53733  26.355   3.354   2.342 -0.1841  0.1781  0.2170
    1W        W53734  23.334  19.392   9.004  0.0513 -0.0069 -0.2070
    1W        W53735  14.281  14.821   0.987 -0.2024 -0.1014  0.1316
    1W        W53736   8.303   5.457   8.076 -0.3590  0.1370  0.0446
    1W        W53737   9.548  24.767   7.810 -0.2191 -0.1098 -0.0571
    1W        W53738  24.482  18.901   8.587  0.1425 -0.3501 -0.2212
    1W        W53739   5.170  19.831   6.621 -0.0302  0.1489  0.0373
    1W        W53740  14.711  23.586   3.117  0.0836 -0.0374  0.0799
    1W        W53741  27.644  11.662   0.008 -0.0615  0.0053  0.0136
    1W        W53742  11.243   1.954   7.311  0.1107 -0.0402  0.0885
    1W        W53743  28.160  15.803   8.558 -0.1598  0.0661 -0.2170
    1W        W53744  21.815  25.924   7.923 -0.2970  0.3836 -0.1462
    1W        W53745  14.780   3.623   2.986 -0.4238  0.2287 -0.1529
    1W        W53746  15.821  11.429   0.651  0.1137 -0.0855  0.1261
    1W        W53747   6.577  25.791   1.051 -0.0457 -0.1334  0.0263
    1W        W53748  13.979   1.500   9.055  0.0342  0.1898  0.0129
    1W        W53749   9.458   3.444   7.827 -0.0782 -0.1218 -0.1717
    1W        W53750  20.950  16.055   0.421 -0.2188  0.0994  0.0888
    1W        W53751  10.801  20.713   5.519  0.3460  0.1665 -0.0779
    1W        W53752  11.392  20.166   7.644  0.0483  0.2347 -0.0559
    1W        W53753  27.505  21.032   1.410  0.0914  0.2136  0.0127
    1W        W53754  22.572   7.405   0.410 -0.1281 -0.2543 -0.0064
    1W        W53755  28.230  19.789   0.079  0.0192 -0.1144  0.4070
    1W        W53756  10.387   2.027   6.755  0.1782 -0.2480 -0.0150
    1W        W53757  16.253   5.677   8.129 -0.2083  0.1371  0.0600
    1W        W53758  26.390   1.564   7.912 -0.1044  0.0094  0.0350
    1W        W53759   6.487  29.560   9.233 -0.4407 -0.2779 -0.1122
    1W        W53760  15.972   9.145   7.566 -0.1468  0.2814  0.0027
    1W        W53761  25.171  26.943   1.045 -0.0455 -0.0003 -0.0686
    1W        W53762  18.869   5.050   7.482  0.1751  0.1112  0.0754
    1W        W53763   2.979  26.262   8.219 -0.1734 -0.2569 -0.1946
    1W        W53764  13.703  27.083   0.731  0.2694 -0.2691  0.0616
    1W        W53765   9.558  20.731   8.658  0.1925  0.1040 -0.1397
    1W        W53766  26.527   6.048   3.449  0.0876  0.1983  0.0165
    1W        W53767  13.446  29.011   7.681 -0.1802 -0.2684  0.0040
    1W        W53768   2.856  16.772   8.057  0.0622 -0.1158 -0.0559
    1W        W53769   9.972  29.073   8.750  0.0486  0.1358 -0.0404
    1W        W53770   1.441   1.173   1.048 -0.0971 -0.1398 -0.0524
    1W        W53771  11.399  24.519   1.562  0.0527 -0.0238 -0.0576
    1W        W53772  18.081   4.565   8.500 -0.2366 -0.0263 -0.0530
    1W        W53773  21.319   0.961   7.113  0.1551  0.1970 -0.2551
    1W        W53774   8.026  20.839   0.516 -0.2154 -0.0971 -0.0919
    1W        W53775  15.490  16.031   6.988  0.0394 -0.2501 -0.0715
    1W        W53776  11.848  24.908   0.795 -0.1541  0.3682  0.1816
    1W        W53777  19.479  15.269   8.105  0.2412 -0.1752 -0.0868
    1W        W53778  24.186  28.397   0.713 -0.0675 -0.0769 -0.2335
    1W        W53779   7.257  15.193   6.431 -0.4910 -0.0319 -0.3531
    1W        W53780   3.725   6.882   9.258 -0.0039 -0.4088  0.1366
    1W        W53781   7.413  13.011   1.823  0.5150  0.0001  0.0980
    1W        W53782   7.292  16.244   1.373  0.2190  0.0293 -0.0085
    1W        W53783   7.409  28.491   0.756  0.2706  0.2559  0.1360
    1W        W53784  11.461  12.776   2.543  0.3120 -0.0138 -0.1648
    1W        W53785   8.447  24.033   8.779 -0.1379 -0.1263  0.1395
    1W        W53786   4.233   4.049   0.290 -0.0894 -0.1207  0.0317
    1W        W53787  19.669  18.730   6.557  0.0406 -0.0936 -0.0856
    1W        W53788   4.732   2.900   8.615 -0.0244 -0.2982  0.0716
    1W        W53789   2.885  26.861   7.547  0.1245  0.0154  0.0061
    1W        W53790  16.404  22.673   6.882 -0.1701 -0.1091 -0.2042
    1W        W53791  22.454   2.278   0.966  0.1072  0.2100  0.3225
    1W        W53792  10.367  29.633   1.497 -0.2248 -0.1003  0.2594
    1W        W53793  18.687  13.413   8.068 -0.0220 -0.0138  0.0410
    1W        W53794  15.449  11.648   8.504 -0.1537 -0.1275  0.1544
    1W        W53795  10.314  11.573   1.966 -0.0439 -0.0533 -0.1325
    1W        W53796  15.722   9.424   0.194  0.0555 -0.0520  0.2712
    1W        W53797   8.163  16.340   6.343 -0.2557  0.2155 -0.2134
    1W        W53798   7.749  12.728   7.955  0.2727  0.0360  0.1117
    1W        W53799  26.801   7.614   8.680  0.3103  0.0744  0.0372
    1W        W53800   3.207  23.265   7.755  0.3673  0.3589  0.0137
    1W        W53801   5.920  22.486   6.642 -0.2087 -0.2279 -0.3171
    1W        W53802  11.050  14.994   8.513 -0.1862 -0.0100 -0.1496
    1W        W53803   6.554   9.730   2.559 -0.0234 -0.0971  0.2263
    1W        W53804  26.317  29.661   9.116  0.2252  0.0685 -0.0248
    1W        W53805  28.408   3.214   3.502 -0.2772  0.3219 -0.1487
    1W        W53806  13.716   4.802   0.228  0.0529 -0.0719 -0.0572
    1W        W53807  25.973  12.446   6.897  0.0854 -0.3399 -0.1460
    1W        W53808  10.134  13.928   8.570  0.0650 -0.2801  0.2088
    1W        W53809  16.612  21.590   7.996 -0.1282  0.1113  0.0138
    1W        W53810   2.261  28.124   8.338  0.0664 -0.0613 -0.0413
    1W        W53811  28.682  12.662   7.211 -0.0151 -0.0390 -0.0065
    1W        W53812   9.214  25.895   2.070  0.0064  0.1113  0.0203
    1W        W53813  21.947  13.867   3.050  0.3564 -0.1449  0.0069
    1W        W53814   9.901   5.584   0.759  0.0869  0.5464  0.1120
    1W        W53815  10.167   4.341   5.967 -0.1410 -0.3497  0.1605
    1W        W53816   5.378   8.318   2.150  0.1018 -0.0743 -0.1291
    1W        W53817  11.502   7.037   2.219 -0.3577 -0.3128 -0.5291
    1W        W53818  16.976   0.805   6.822 -0.0872 -0.4007  0.4719
    1W        W53819  17.344  19.784   6.698 -0.2456  0.0360 -0.0627
    1W        W53820  20.658  26.159   7.940 -0.1143  0.0245  0.3764
    1W        W53821  17.536  13.091   7.999  0.0158  0.2838 -0.0741
    1W        W53822  25.241  25.119   7.113 -0.0699 -0.0538 -0.1004
    1W        W53823  12.862  11.678   1.637  0.2371 -0.1785 -0.0789
    1W        W53824  15.605   1.621   2.237  0.0287  0.0608 -0.1943
    1W        W53825   3.820  16.361   7.897 -0.1569 -0.1828  0.2942
    1W        W53826  27.199  12.473   7.029 -0.0070 -0.1515  0.2669
    1W        W53827   2.041  22.676   7.437 -0.0897  0.1977 -0.1537
    1W        W53828  28.594  27.645   0.996 -0.1936  0.1281 -0.1193
    1W        W53829  23.780  23.416   6.774  0.0818 -0.0100 -0.3036
    1W        W53830  14.911  22.509   2.756 -0.2680  0.0323  0.3533
    1W        W53831  15.180   8.675   2.096  0.0191  0.2267 -0.2664
    1W        W53832  10.859   0.319   8.490  0.2311 -0.0744 -0.0482
    1W        W53833  10.920  18.733   1.239  0.3042  0.0655 -0.0089
    1W        W53834  22.165  20.965   7.191 -0.0211  0.0622  0.0632
    1W        W53835   7.833  19.767   6.882  0.0275  0.0587  0.0075
    1W        W53836  19.772  28.847   9.208  0.1670 -0.1312  0.1012
    1W        W53837   6.817  19.777   7.683 -0.1093 -0.0927 -0.0842
    1W        W53838  11.123  24.291   0.595  0.0886 -0.1852 -0.2111
    1W        W53839  26.243  10.019   8.035  0.0981 -0.0911 -0.2522
    1W        W53840  20.933  13.030   6.637 -0.0010 -0.0411  0.2090
    1W        W53841  26.349  25.787   0.027 -0.1470 -0.1571  0.0776
    1W        W53842  29.013  14.551   1.145  0.1021  0.2722 -0.2257
    1W        W53843  28.382  15.878   9.020 -0.1854  0.0155  0.1492
    1W        W53844  26.001   7.348   8.985  0.0092  0.3083  0.1772
    1W        W53845   8.126   2.713   1.914 -0.0577  0.2065 -0.0993
    1W        W53846  25.760  17.526   0.630 -0.5185 -0.2281 -0.0825
    1W        W53847  27.971  29.061   9.059 -0.1592  0.2150 -0.0290
    1W        W53848  15.496  26.185   7.851  0.2782  0.1167  0.0026
    1W        W53849  26.267   9.791   6.821  0.1790 -0.2104 -0.1190
    1W        W53850   3.939  20.510   6.797 -0.0983  0.2300 -0.4170
    1W        W53851   2.799  13.469   0.783 -0.2126 -0.2180 -0.0392
    1W        W53852   7.131   7.978   7.191  0.3725 -0.2191  0.0133
    1W        W53853   3.681  30.103   8.511  0.2700 -0.2300 -0.0014
    1W        W53854  23.811  24.418   1.143 -0.0561 -0.1754  0.0195
    1W        W53855  25.915   0.151   1.679 -0.1719  0.0274 -0.1810
    1W        W53856  20.179  22.885   5.828 -0.1702  0.2327 -0.0074
    1W        W53857  27.311  29.401   0.374  0.0421  0.0623 -0.2321
    1W        W53858  28.952  27.631   2.818 -0.1217  0.1483 -0.4854
    1W        W53859  26.916  27.023   2.814  0.2125  0.0589  0.1185
    1W        W53860  26.349   0.901   2.212 -0.0323  0.1583  0.0424
    1W        W53861   9.111   7.125   7.326  0.0865 -0.1450 -0.0438
    1W        W53862  10.884  25.685   0.389  0.2128 -0.0325 -0.0221
    1W        W53863  22.090  10.869   8.011 -0.2177  0.0107  0.3222
    1W        W53864  11.339   0.773   6.105  0.3479  0.2064  0.0981
    1W        W53865  28.908  16.332   9.179  0.1700  0.0462  0.1470
    1W        W53866  12.907   1.171   7.267 -0.1296  0.2026  0.1630
    1W        W53867   9.652   2.739   2.917  0.0124  0.2426 -0.1411
    1W        W53868  13.973   4.197   3.198  0.2084 -0.2533 -0.0617
    1W        W53869  24.143  11.496   6.358 -0.1190 -0.1787  0.0504
    1W        W53870  16.683   3.438   0.366  0.0021  0.2353  0.1085
    1W        W53871   8.049  21.787   8.869 -0.1191 -0.0211 -0.0059
    1W        W53872   2.091  25.295   0.410  0.0995 -0.0322 -0.1898
    1W        W53873  26.372  12.276   7.128  0.0349 -0.0845  0.0322
    1W        W53874   6.844  25.381   2.843  0.1700 -0.0365  0.1946
    1W        W53875  17.517   0.323   1.768  0.4027  0.0638  0.0054
    1W        W53876  27.020   5.501   7.041  0.1762  0.2012  0.1639
    1W        W53877   4.738  20.383   0.855  0.2412 -0.2860 -0.0116
    1W        W53878   4.681  11.588   7.000  0.0266 -0.1407  0.0410
    1W        W53879  22.622  25.903   0.202 -0.0607 -0.1150 -0.0367
    1W        W53880  27.383  20.406   1.686 -0.0615  0.0935  0.0351
    1W        W53881  28.843   2.848   1.961  0.0708  0.0479  0.2731
    1W        W53882   2.429  14.671   0.326  0.1148  0.1475 -0.2298
    1W        W53883  27.896   5.414   6.744  0.1289 -0.0288 -0.3312
    1W        W53884  16.160   1.776   2.209 -0.0431  0.3986  0.0183
    1W        W53885   5.757  27.521   8.429  0.3059  0.3966 -0.1137
    1W        W53886   2.923  20.091   7.148  0.1120  0.2185 -0.0215
    1W        W53887  21.912  23.433   1.733  0.2501  0.2679  0.1438
    1W        W53888  11.148  27.946   2.212 -0.3548  0.2452  0.1331
    1W        W53889   5.625   4.273   1.233  0.0364  0.2727 -0.2010
    1W        W53890  28.448   9.979   7.191 -0.2083  0.0865  0.0161
    1W        W53891  21.263  22.443   7.797 -0.1403  0.2119 -0.1098
    1W        W53892   9.034  14.659   0.990 -0.1633  0.1729  0.0019
    1W        W53893  21.016  28.851   8.060  0.1562 -0.0120 -0.3708
    1W        W53894  19.939   2.981   8.730  0.0796  0.3713  0.0194
    1W        W53895  30.297  11.991   1.636 -0.1361 -0.1260  0.0499
    1W        W53896   2.914  25.920   6.713 -0.1429  0.0571 -0.1809
    1W        W53897  29.415  27.636   8.059 -0.0163  0.3514  0.1906
    1W        W53898  30.175  13.338   7.522  0.3696  0.0114  0.0063
    1W        W53899  30.287  29.830   0.583 -0.0794  0.0162  0.0504
    1W        W53900   5.475  16.593   0.548  0.3252  0.1268 -0.2210
    1W        W53901  10.777  25.455   1.372  0.2909 -0.0459 -0.2647
    1W        W53902  23.547  19.571   0.134  0.3382  0.3217 -0.1367
    1W        W53903   0.923   8.170   3.009 -0.0355 -0.3111  0.0833
    1W        W53904  23.236  20.688   8.428 -0.4540 -0.3589 -0.1034
    1W        W53905   7.545   7.388   0.256 -0.1415  0.0434 -0.0371
    1W        W53906   9.834   0.609   2.101  0.2820  0.0111 -0.0493
    1W        W53907  11.273  27.859   1.534  0.3375 -0.1370 -0.0861
    1W        W53908  17.652   5.045   6.171  0.0710 -0.0619 -0.1345
    1W        W53909  24.426   4.096   1.373 -0.1826  0.2294 -0.2460
    1W        W53910  12.461  20.068   1.947 -0.1233 -0.1214 -0.1708
    1W        W53911  16.433  21.835   7.207 -0.2506  0.0727 -0.1489
    1W        W53912   1.791   0.622   7.828 -0.0448  0.0481  0.1388
    1W        W53913  19.732  20.971   7.371  0.0852 -0.0773  0.1639
    1W        W53914  30.163   2.239   0.304 -0.0929  0.3002 -0.0373
    1W        W53915   7.247   3.284   1.964 -0.0944  0.3778  0.1287
    1W        W53916  22.700  13.066   6.013  0.4608 -0.2610  0.0545
    1W        W53917  27.756  22.960   1.125  0.3698 -0.2449  0.0322
    1W        W53918  14.920  30.319   8.575  0.0026 -0.2537 -0.1737
    1W        W53919  27.575   9.552   1.344 -0.1948 -0.0846  0.2934
    1W        W53920  25.858  15.449   0.998  0.1619  0.1245  0.2879
    1W        W53921  15.994   5.079   0.510  0.1769 -0.2125 -0.1981
    1W        W53922  23.490  29.399   0.441 -0.0533  0.2104 -0.3010
    1W        W53923   7.698  16.671   0.075 -0.3107 -0.2395  0.1165
    1W        W53924  22.594  12.986   8.057 -0.4251  0.0219  0.3265
    1W        W53925   8.311   9.805   0.612  0.1041 -0.4736 -0.1295
    1W        W53926   2.354   7.484   6.673  0.2057 -0.1431 -0.2841
    1W        W53927  18.605   9.380   6.695  0.0179  0.0049 -0.0881
    1W        W53928  14.161  16.933   2.716  0.0462 -0.2976 -0.2897
    1W        W53929   3.538  18.680   8.273 -0.1883  0.0498  0.0069
    1W        W53930  27.424   4.567   6.845 -0.1345 -0.0202  0.0076
    1W        W53931  16.612  27.744   1.329  0.0449  0.0803 -0.1766
    1W        W53932  17.598  27.813   0.233  0.1248  0.1723 -0.2142
    1W        W53933  15.914  17.611   6.741 -0.3505  0.0130 -0.0103
    1W        W53934   9.593   9.655   8.505 -0.1417  0.3259 -0.0419
    1W        W53935  22.961   0.822   0.161 -0.0018  0.1505 -0.2948
    1W        W53936  29.145   0.293   1.918 -0.1234  0.0773  0.0785
    1W        W53937  20.273   6.672   1.663  0.1376  0.0190 -0.1424
    1W        W53938  27.389  13.852   8.289 -0.0958  0.1939 -0.2534
    1W        W53939  22.433  18.796   0.046  0.0714  0.0082  0.0095
    1W        W53940   7.023   2.897   1.668 -0.2918 -0.0403  0.2959
    1W        W53941   5.393  13.171   1.772  0.0519 -0.0166  0.2349
    1W        W53942  12.969  16.363   0.847  0.0649  0.1277  0.0023
    1W        W53943   7.972  26.454   0.382  0.0621  0.0391 -0.1111
    1W        W53944  26.922  27.779   0.489  0.0907  0.1488  0.1578
    1W        W53945  18.531   3.603   8.424  0.2293 -0.3879  0.1866
    1W        W53946  18.562  23.277   8.725 -0.1252 -0.0595  0.0555
    1W        W53947  18.450  28.164   7.968  0.2858  0.5775 -0.0844
    1W        W53948  22.139  30.240   7.473 -0.4295 -0.0986 -0.4167
    1W        W53949  20.356  29.938   0.884 -0.1192  0.0006 -0.1889
    1W        W53950   4.735   2.541   2.110 -0.0894 -0.3047 -0.3432
    1W        W53951  18.219  17.578   8.278  0.0619 -0.3409  0.2157
    1W        W53952  14.912  14.269   3.194  0.0726 -0.0924  0.0002
    1W        W53953   3.790  10.316   7.902 -0.1786  0.0434 -0.2329
    1W        W53954  16.731  18.997   5.319 -0.1574  0.0111 -0.3996
    1W        W53955  21.150   5.964   0.277  0.0566 -0.0439 -0.3993
    1W        W53956   8.336  13.241   0.474 -0.0094  0.2559 -0.2818
    1W        W53957  10.341  27.526   0.060  0.1626 -0.1681 -0.1665
    1W        W53958   5.268   6.251   9.036  0.1280 -0.2345 -0.3197
    1W        W53959  17.559  26.659   3.156  0.1686  0.1260 -0.0244
    1W        W53960  23.237   4.276   2.855  0.2051 -0.2784 -0.0745
    1W        W53961  16.917  12.608   9.036  0.2260  0.0067  0.3698
    1W        W53962  22.144  15.070   0.159  0.1235 -0.0189 -0.1618
    1W        W53963  19.820  17.286   6.511  0.3222 -0.0146  0.0469
    1W        W53964  20.923  11.568   7.889 -0.2827  0.1749  0.0077
    1W        W53965  18.527   2.895   1.849 -0.1065  0.3954 -0.0698
    1W        W53966  28.152  13.198   0.059  0.0968  0.1128 -0.3682
    1W        W53967  16.743  27.132   8.817  0.1629 -0.1885  0.1624
    1W        W53968   0.060   6.163   9.047  0.0311 -0.0080  0.5193
    1W        W53969  18.754   3.018   8.124 -0.0404  0.1919  0.0929
    1W        W53970  26.825   0.915   3.295  0.1585 -0.3524 -0.0218
    1W        W53971  10.668  17.436   9.184 -0.0644 -0.0784  0.2999
    1W        W53972  13.542   7.757   0.989 -0.1868  0.2484  0.0043
    1W        W53973  16.152  25.711   0.348  0.0410  0.1094  0.0031
    1W        W53974   1.062  18.869   7.095 -0.0421  0.2341  0.1252
    1W        W53975  14.779   8.355   9.151  0.0139 -0.0454 -0.2970
    1W        W53976   8.575  10.041   0.991 -0.1358 -0.2562 -0.1840
    1W        W53977  24.571  30.077   2.351  0.1418 -0.2518 -0.1049
    1W        W53978   4.943  24.204   1.038 -0.1083 -0.0123  0.1292
    1W        W53979  25.194  30.048   7.501 -0.2852  0.2084  0.1330
    1W        W53980  16.399  14.741   7.789  0.1675 -0.1392 -0.0976
    1W        W53981  20.890   0.417   9.212 -0.1027  0.0255  0.0866
    1W        W53982  11.263  13.880   9.026 -0.1206  0.0468  0.1658
    1W        W53983  23.560  26.673   8.171 -0.0468  0.1034 -0.4337
    1W        W53984   9.443  16.772   6.698  0.0639  0.0085 -0.1436
    1W        W53985   2.208  13.534   2.116 -0.0967  0.0036  0.2404
    1W        W53986   9.017   6.302   0.490 -0.4225  0.0968 -0.0307
    1W        W53987  12.301   3.274   8.976 -0.2777 -0.1023  0.0903
    1W        W53988   0.887   3.136   7.852 -0.0820 -0.0191 -0.4316
    1W        W53989  28.381  25.540   7.172  0.4251  0.1502 -0.1002
    1W        W53990   3.654  18.952   1.367  0.1432 -0.0425 -0.2543
    1W        W53991  18.443  22.769   9.107  0.3178  0.0353  0.2471
    1W        W53992   1.402   5.059   6.113  0.1850  0.0294 -0.0889
    1W        W53993  28.831  28.704   0.215 -0.0778  0.1848  0.3885
    1W        W53994  19.234   6.908   6.320 -0.1339 -0.0215  0.1216
    1W        W53995   8.156   9.614   7.235 -0.1650  0.5280  0.1396
    1W        W53996  22.287   2.007   0.452  0.0839  0.1727 -0.0335
    1W        W53997  18.569  25.432   5.960 -0.3079 -0.1950  0.2587
    1W        W53998   7.983   2.001   0.199  0.0758  0.4184 -0.1738
    1W        W53999  19.308  16.291   6.744 -0.1616  0.2329  0.0459
    1W        W54000  14.389  19.833   8.350  0.2523 -0.1415 -0.6296
    1W        W54001   1.028  12.435   9.143 -0.0219  0.0713  0.1343
    1W        W54002   2.543   5.903   7.995  0.2582 -0.0188  0.0140
    1W        W54003  29.594   2.479   8.568 -0.1663 -0.0627 -0.1448
    1W        W54004  18.050  22.713   1.198 -0.1274 -0.0990  0.0228
    1W        W54005  19.535   5.091   6.958 -0.1150 -0.1744 -0.0880
    1W        W54006   9.823  18.690   6.889  0.0585  0.0790  0.1939
    1W        W54007  17.788  21.333   8.237 -0.0074 -0.2824  0.0949
    1W        W54008   0.981   8.452   1.265 -0.1259  0.3923  0.1553
    1W        W54009  16.920  28.413   7.297  0.1051  0.1194  0.5190
    1W        W54010  22.681   8.675   7.000 -0.0168 -0.0880 -0.2520
    1W        W54011   8.011  11.345   2.013  0.1307  0.0355  0.0698
    1W        W54012   9.245  20.959   0.993 -0.0720 -0.1003  0.0946
    1W        W54013  27.085  28.259   0.395  0.2744  0.0554  0.1054
    1W        W54014  25.481   9.837   2.295  0.0798  0.0737  0.3858
    1W        W54015   9.883   2.380   0.010 -0.1377 -0.0100 -0.2589
    1W        W54016   8.477  26.798   0.678 -0.1330  0.0216 -0.2446
    1W        W54017  14.722   3.519   8.223  0.2117 -0.0945  0.1381
    1W        W54018   5.692  25.482   2.130 -0.1631 -0.2360 -0.0678
    1W        W54019   2.583  12.122   0.126 -0.0408 -0.1003 -0.3056
    1W        W54020  21.721  24.199   0.446  0.1069 -0.2120 -0.1810
    1W        W54021   6.746  30.292   8.026  0.0177 -0.1323 -0.0465
    1W        W54022   1.243   9.736   0.598  0.1266  0.3377  0.0550
    1W        W54023  27.459   2.467   0.192  0.3494  0.4613  0.3621
    1W        W54024  16.286  16.538   8.150 -0.0937  0.2313 -0.1563
    1W        W54025   0.563   1.815   8.719  0.1439 -0.0037  0.0194
    1W        W54026  21.174  18.919   8.843  0.1340  0.0826 -0.2258
    1W        W54027   2.260   0.106   3.394  0.1849  0.1360  0.5546
    1W        W54028  30.252   4.234   2.644  0.3526 -0.1027  0.1980
    1W        W54029   8.135  13.862   7.641 -0.2348 -0.3878 -0.0481
    1W        W54030  29.812   1.190   0.851 -0.0603 -0.0597 -0.1711
    1W        W54031  29.925   3.687   9.116 -0.2689  0.2186 -0.0831
    1W        W54032  14.804  10.996   8.795 -0.0829 -0.1021 -0.0462
    1W        W54033  27.018  24.016   8.203  0.4118  0.2151 -0.0233
    1W        W54034   1.769   6.005   2.132 -0.0360 -0.0238  0.1932
    1W        W54035  14.376  11.418   8.931 -0.2400 -0.0950  0.2495
    1W        W54036   3.734  24.422   1.409 -0.1368  0.0468 -0.2784
    1W        W54037   4.743  26.343   8.951 -0.0383 -0.1852 -0.1366
    1W        W54038  25.592  15.597   0.296  0.0553 -0.1032  0.0500
    1W        W54039   1.081   2.199   3.237 -0.1468 -0.0934  0.1805
    1W        W54040   0.742   4.996   7.353 -0.0782  0.0515  0.0161
    1W        W54041   9.947  23.316   6.409  0.0560  0.2373 -0.0166
    1W        W54042   1.766   1.378   2.735  0.1502  0.0300 -0.1043
    1W        W54043  16.662   0.397   6.898  0.2188 -0.0272  0.2716
    1W        W54044  21.328   4.281   6.784  0.0883 -0.3377 -0.0383
    1W        W54045   8.184  10.136   0.138  0.2954  0.3000  0.0721
    1W        W54046  16.859  11.112   7.320  0.1516  0.0505  0.0550
    1W        W54047  18.881  22.428   9.121 -0.0849  0.0253  0.1070
    1W        W54048  19.463  25.924   0.990 -0.0665 -0.0794  0.1985
    1W        W54049  16.793  14.096   7.553  0.0597 -0.0222 -0.1098
    1W        W54050  25.483  18.335   6.810 -0.1163  0.1004 -0.3585
    1W        W54051  29.050  30.155   1.878  0.0419 -0.0595 -0.0098
    1W        W54052  26.657  11.344   1.031 -0.1974  0.3314  0.1902
    1W        W54053  21.328   4.189   2.452  0.0205 -0.1537 -0.4370
    1W        W54054  23.126   6.793   3.140  0.1030  0.1531 -0.1620
    1W        W54055  17.990   9.591   2.254  0.5566 -0.0936 -0.0839
    1W        W54056  19.641  14.351   8.217  0.0726 -0.3123  0.0324
    1W        W54057  17.509   0.184   1.286  0.0264 -0.0603  0.0227
    1W        W54058  20.737  21.614   9.030  0.0476  0.2325 -0.0066
    1W        W54059   0.290  12.781   0.151  0.2662  0.0404 -0.0731
    1W        W54060   3.537  15.761   1.842  0.3508 -0.0675  0.1018
    1W        W54061   7.405  15.384   2.107  0.0427 -0.0800 -0.0704
    1W        W54062   6.300   3.191   6.776  0.0119 -0.2019  0.1968
    1W        W54063  18.217   6.302   7.128  0.1646 -0.3878  0.0115
    1W        W54064  17.463  14.582   1.762  0.2332  0.0622 -0.0421
    1W        W54065  27.034   2.656   2.746  0.0728  0.0480  0.0819
    1W        W54066  28.162   0.346   8.003 -0.1399  0.1745 -0.0066
    1W        W54067   9.490   3.594   6.892 -0.3101 -0.1685  0.0306
    1W        W54068   8.031  22.626   1.854 -0.0398  0.2178 -0.0680
    1W        W54069  21.686  20.073   8.603 -0.1129 -0.0371  0.1073
    1W        W54070  23.082   2.301   3.205  0.1179  0.2529 -0.1458
    1W        W54071  17.295  14.698   6.931  0.0875 -0.0289  0.0015
    1W        W54072  24.590   8.281   2.444  0.3000  0.0801  0.2474
    1W        W54073   2.837  30.272   1.729  0.0491 -0.2285 -0.1432
    1W        W54074  15.823  20.798   7.677  0.1558  0.0218 -0.2738
    1W        W54075  29.768  27.547   2.836 -0.1674  0.0309 -0.3899
    1W        W54076  20.218  24.185   8.613  0.0383 -0.4951 -0.3022
    1W        W54077   8.043  29.824   2.452  0.1938 -0.1267  0.0566
    1W        W54078  12.502   7.693   7.575 -0.1759 -0.0439 -0.1319
    1W        W54079   9.058   9.934   8.895 -0.0171 -0.2035  0.1617
    1W        W54080   8.063  21.381   8.647 -0.1864  0.0880  0.2376
    1W        W54081   9.272   3.082   8.793  0.3246 -0.0602  0.2754
    1W        W54082  29.748   8.744   0.788  0.0838 -0.1239  0.0963
    1W        W54083   2.825  20.910   0.224  0.1462 -0.0550 -0.0317
    1W        W54084  29.232   2.398   2.005 -0.1583 -0.1513  0.0227
    1W        W54085  11.907  12.513   2.664  0.2559 -0.3834 -0.2337
    1W        W54086  14.996  15.196   6.516 -0.1706 -0.3165 -0.4407
    1W        W54087   4.283  25.446   2.104 -0.1434  0.1204  0.1794
    1W        W54088   5.955  28.734   0.376 -0.1087  0.1500 -0.4525
    1W        W54089   7.667  26.997   7.854 -0.1799 -0.1594  0.1321
    1W        W54090  21.810  16.491   2.301 -0.1709 -0.1712 -0.1118
    1W        W54091  28.347   1.045   9.006  0.1624  0.0657  0.0412
    1W        W54092  23.561   0.631   2.628 -0.2378  0.2766  0.0431
    1W        W54093   4.645   1.396   6.731 -0.2000  0.0099  0.1948
    1W        W54094  12.196  16.379   6.248 -0.1950 -0.0489  0.3044
    1W        W54095  22.593  29.406   1.385  0.0910 -0.2134 -0.0342
    1W        W54096  15.335  25.972   2.118  0.1431  0.1589  0.0078
    1W        W54097  27.826  15.277   8.450 -0.1143  0.0823  0.1274
    1W        W54098  20.575  28.754   7.895  0.0977  0.0146  0.2106
    1W        W54099  20.778  27.121   1.306 -0.0642  0.4009  0.3100
    1W        W54100  17.570   9.245   2.544  0.0201 -0.1328 -0.1188
    1W        W54101  26.982  23.687   8.551 -0.1134 -0.1453  0.0993
    1W        W54102  14.389  10.305   7.590  0.0120 -0.0360  0.1346
    1W        W54103  11.744   2.093   8.488  0.0599 -0.0408  0.0585
    1W        W54104  16.886  29.596   7.462 -0.0260 -0.2235 -0.2260
    1W        W54105  18.163  26.217   7.697  0.1943 -0.0673 -0.0787
    1W        W54106  29.431  21.573   8.063  0.0614 -0.1929  0.1779
    1W        W54107  24.342  19.838   1.514 -0.3436  0.3402 -0.1096
    1W        W54108  16.293   5.236   6.103  0.0625  0.1417  0.2026
    1W        W54109  19.901  20.171   7.559  0.0143  0.3739  0.0330
    1W        W54110  28.547   3.747   2.814 -0.1345 -0.0192 -0.0997
    1W        W54111  12.908   0.281   6.425  0.0578 -0.2146 -0.0098
    1W        W54112  14.751  20.801   9.231  0.1911  0.3447  0.1582
    1W        W54113  13.673  14.087   2.484 -0.2065  0.0209 -0.0570
    1W        W54114   3.819  19.045   6.584 -0.2225  0.1898  0.1404
    1W        W54115  27.783   6.069   8.272 -0.0110 -0.0465 -0.1945
    1W        W54116   9.724  13.437   8.543 -0.1000  0.1713 -0.1315
    1W        W54117   6.962  10.890   7.712 -0.2723  0.1599  0.1346
    1W        W54118   7.803   6.689   2.830 -0.0274  0.0543 -0.0567
    1W        W54119  18.879  18.907   7.196  0.1705 -0.0980 -0.0832
    1W        W54120  29.835  26.115   1.465 -0.2195  0.2105  0.2340
    1W        W54121  19.380   8.438   0.876  0.4207 -0.0178  0.1852
    1W        W54122  24.093  27.005   8.688 -0.1294 -0.1590 -0.1229
    1W        W54123   3.113   4.964   2.242  0.1790 -0.2793 -0.1038
    1W        W54124  15.697  15.273   0.077 -0.0359  0.0908  0.1638
    1W        W54125  26.906   9.576   8.348 -0.1917 -0.3570 -0.0859
    1W        W54126  23.340  19.338   6.930 -0.1215  0.2015 -0.0933
    1W        W54127  11.874  18.541   6.951  0.1435 -0.0659 -0.0389
    1W        W54128  24.870  17.071   7.252 -0.1281 -0.1882  0.0304
    1W        W54129  13.136   0.165   9.035  0.1076  0.1785 -0.3300
    1W        W54130   8.506  13.291   8.355  0.1776 -0.0808  0.0106
    1W        W54131  10.439  24.584   0.102 -0.0532 -0.0749 -0.0946
    1W        W54132   9.653   4.751   0.564  0.4189 -0.1429 -0.3126
    1W        W54133  14.947  13.785   3.041  0.2026 -0.1644 -0.3111
    1W        W54134  28.169  21.753   7.793 -0.2739 -0.0915  0.1024
    1W        W54135   4.328  18.050   8.972  0.0092 -0.2601 -0.0206
    1W        W54136   7.553   4.570   7.868 -0.3021 -0.0087 -0.2402
    1W        W54137  30.351  29.618   8.920  0.0704  0.0989  0.0132
    1W        W54138  14.628  10.884   1.075 -0.4936 -0.1984 -0.2088
    1W        W54139  24.184  17.192   6.242 -0.1496  0.2599 -0.2049
    1W        W54140  28.955  13.103   0.191 -0.1583 -0.1076  0.1227
    1W        W54141   1.598   7.068   7.464  0.4686  0.0207  0.0144
    1W        W54142  12.939  27.323   0.930  0.0780  0.1648  0.1148
    1W        W54143   1.433  18.643   0.073  0.1042  0.1437 -0.1593
    1W        W54144  10.929  29.371   0.471 -0.2219  0.4834 -0.1561
    1W        W54145   1.137  10.487   7.430 -0.1030 -0.1207 -0.1324
    1W        W54146  24.496  10.223   8.253  0.1173 -0.2684 -0.0360
    1W        W54147  18.075  22.282   0.974 -0.1175 -0.2060 -0.0077
    1W        W54148  14.043  13.733   2.420 -0.0776  0.1150 -0.0859
    1W        W54149  18.912  23.959   7.710  0.1564  0.2601  0.0843
    1W        W54150   9.012  20.560   8.797 -0.3344 -0.1397  0.0487
    1W        W54151  25.292  15.817   1.995 -0.0950  0.1075  0.1427
    1W        W54152  18.517  23.840   8.970  0.0154 -0.0397  0.1235
    1W        W54153  18.327   2.941   7.741  0.0059  0.2315  0.1904
    1W        W54154  15.804  29.078   2.973  0.1259  0.2496 -0.2183
    1W        W54155  11.598  11.147   8.518  0.1779 -0.0712  0.0125
    1W        W54156   4.378  20.866   0.707  0.1698 -0.0382 -0.0445
    1W        W54157   8.013   3.625   7.854  0.1202 -0.2814  0.1477
    1W        W54158   2.454  18.221   7.584  0.3196 -0.1676 -0.0632
    1W        W54159   3.712  27.633   2.765 -0.0276  0.1285  0.3349
    1W        W54160  18.144  29.645   2.668  0.0723 -0.0333 -0.0407
    1W        W54161  16.168  27.708   1.974 -0.1290 -0.2592 -0.2497
    1W        W54162  29.525  30.001   1.134  0.2078 -0.1092 -0.0915
    1W        W54163  23.674   0.185   0.141 -0.2639 -0.1189 -0.0151
    1W        W54164  22.896   7.263   8.661 -0.1134 -0.2741  0.1703
    1W        W54165  10.572   8.012   2.762 -0.1271  0.1901  0.0576
    1W        W54166  29.857  25.846   1.030 -0.0180  0.0475 -0.0736
    1W        W54167  26.937   4.965   1.635 -0.0362 -0.1597  0.1265
    1W        W54168   3.646  23.390   2.173 -0.0003  0.2935 -0.0123
    1W        W54169   8.988   0.619   7.780  0.2370  0.0450  0.3118
    1W        W54170  28.708   8.991   1.601 -0.3626  0.2283  0.2201
    1W        W54171  19.484  30.133   6.974  0.0365 -0.2041 -0.0927
    1W        W54172  21.887   2.402   8.979  0.0831  0.0510  0.0629
    1W        W54173  12.987  23.484   7.288  0.0453  0.0714  0.0614
    1W        W54174  22.549  16.727   8.010 -0.3849 -0.1536 -0.1250
    1W        W54175   5.946   6.924   9.243  0.1304  0.1636  0.1069
    1W        W54176   0.078  11.139   1.377  0.1639  0.0237 -0.1352
    1W        W54177  20.443  17.963   6.234 -0.1332  0.0592  0.2098
    1W        W54178   7.098   6.164   8.346 -0.3806  0.0747  0.0743
    1W        W54179  11.097   4.548   6.572 -0.0312  0.2115 -0.0169
    1W        W54180  30.140   0.488   7.952 -0.1624  0.1339 -0.2042
    1W        W54181  17.395  10.479   2.555  0.0140  0.1876  0.0251
    1W        W54182  13.416  21.780   2.292  0.2916  0.1222 -0.0045
    1W        W54183  26.873  20.461   1.349  0.0692  0.2153  0.0724
    1W        W54184   7.141  20.401   2.117 -0.0405  0.2029  0.1183
    1W        W54185  27.363  28.505   7.734 -0.0693 -0.0314  0.4963
    1W        W54186   3.175   9.740   1.854  0.0665 -0.0709 -0.2310
    1W        W54187  18.136  30.002   8.336 -0.1470  0.0442  0.1295
    1W        W54188  14.312  12.346   8.844  0.3213 -0.2620 -0.1238
    1W        W54189  12.323  26.337   1.597 -0.0358  0.1405  0.1131
    1W        W54190   3.078   4.438   0.125  0.3686 -0.1663 -0.1413
    1W        W54191   7.690  16.054   1.107  0.1389  0.0842  0.2171
    1W        W54192   0.912  13.336   2.007 -0.0116  0.1137  0.0731
    1W        W54193  25.897  24.584   7.455 -0.0605 -0.0947 -0.0460
    1W        W54194   0.191  22.836   1.298 -0.0105 -0.0045  0.0288
    1W        W54195  21.399  24.842   6.867 -0.1068  0.0221  0.0366
    1W        W54196  10.138  19.424   7.861  0.3395  0.5199 -0.1270
    1W        W54197  22.691  15.085   7.110  0.2435 -0.2699 -0.0787
    1W        W54198  12.134  23.543   7.624 -0.0724 -0.2652  0.0393
    1W        W54199   5.405  25.056   8.336 -0.0295  0.1360 -0.2184
    1W        W54200  27.930   8.605   7.964  0.0324 -0.2645 -0.2594
    1W        W54201   6.864  16.419   1.576  0.0764 -0.0390 -0.0694
    1W        W54202   2.734   1.743   0.967  0.0325  0.0356 -0.1024
    1W        W54203   0.975  17.072   1.812  0.2059 -0.0363 -0.1210
    1W        W54204  14.021  10.754   1.342 -0.1660  0.1221  0.1219
    1W        W54205  22.762  13.121   7.502 -0.0589 -0.2916 -0.2091
    1W        W54206  21.608  22.757   7.561  0.1852 -0.1054 -0.1122
    1W        W54207  12.068   8.760   7.618 -0.0388 -0.2663 -0.0166
    1W        W54208   4.610  29.430   0.848 -0.3513  0.2713  0.2180
    1W        W54209  24.406  15.781   0.413  0.2100  0.1837  0.3222
    1W        W54210  20.330  26.977   7.593 -0.1017 -0.0322  0.0631
    1W        W54211  18.832  21.491   8.630  0.0360  0.0889  0.1464
    1W        W54212  22.186  17.538   0.588 -0.0425  0.0195  0.2623
    1W        W54213   4.891  24.048   0.210 -0.0723  0.2223 -0.2266
    1W        W54214  26.591  17.856   1.168 -0.3331 -0.4168 -0.2278
    1W        W54215  18.988  14.306   1.885 -0.1303  0.1160  0.0041
    1W        W54216   2.003  22.578   0.172  0.0608  0.1439 -0.0560
    1W        W54217  30.067  24.122   1.632 -0.1446  0.0980  0.0001
    1W        W54218  18.045  17.805   7.258  0.1929  0.0893  0.2161
    1W        W54219  10.040  28.300   0.480 -0.2111  0.0956 -0.0438
    1W        W54220  20.177  10.232   7.041 -0.0203  0.0596 -0.0739
    1W        W54221  18.551  14.359   8.094  0.0014 -0.0924  0.0013
    1W        W54222  28.946   2.402   7.957  0.0475 -0.1739  0.2640
    1W        W54223  11.504  13.469   7.815 -0.2529  0.2784 -0.0451
    1W        W54224  14.363   5.999   0.297 -0.0920 -0.1771 -0.0595
    1W        W54225  19.223  20.816   6.630  0.1139  0.1149  0.1130
    1W        W54226   7.689  10.289   1.002 -0.1477 -0.2579  0.0761
    1W        W54227   7.381   4.853   2.509  0.3263  0.2026  0.1312
    1W        W54228  30.026  22.106   6.673  0.1020  0.2625  0.0328
    1W        W54229  16.410   1.864   9.269  0.1296  0.1618  0.0432
    1W        W54230  20.661  27.685   1.286 -0.0711  0.1489  0.1853
    1W        W54231  27.030  12.580   6.212 -0.0314 -0.0471 -0.3336
    1W        W54232   9.747   1.844   0.941 -0.0878  0.0748 -0.2867
    1W        W54233   5.090   5.076   2.844 -0.2617 -0.0491 -0.1423
    1W        W54234   9.412  16.002   7.680 -0.0621 -0.1712  0.2397
    1W        W54235  27.246  27.404   2.803  0.1311 -0.3750 -0.2237
    1W        W54236  17.811  24.281   8.650  0.1709 -0.2138 -0.2565
    1W        W54237  16.789   5.106   6.058  0.0803 -0.1454  0.0355
    1W        W54238   1.794  28.406   0.313  0.0895 -0.0361  0.0128
    1W        W54239   4.510  27.913   2.184  0.0749  0.1748 -0.1312
    1W        W54240  16.608  28.769   7.038 -0.0325  0.1967  0.0585
    1W        W54241  24.084   1.332   8.418  0.3417 -0.0103  0.1426
    1W        W54242   8.310  12.449   8.856 -0.2016 -0.1483  0.0566
    1W        W54243  10.360  21.182   1.343  0.1253 -0.3668  0.3653
    1W        W54244  24.823  16.563   7.369  0.2375 -0.1325 -0.0639
    1W        W54245  17.671  21.318   6.603  0.0100 -0.0672  0.0287
    1W        W54246  17.085  15.540   2.185  0.2599 -0.2001  0.4032
    1W        W54247  22.632  23.061   0.069  0.1638  0.0563  0.1068
    1W        W54248  17.699   5.602   6.307 -0.4280  0.0596 -0.0260
    1W        W54249   7.538  15.898   8.476  0.0269  0.1567 -0.0783
    1W        W54250   5.275   8.187   0.158 -0.1014 -0.1391 -0.0888
    1W        W54251  16.288  24.508   6.228  0.0714 -0.1518  0.2060
    1W        W54252   3.869  22.999   9.075 -0.2093  0.1754 -0.0935
    1W        W54253   6.888   8.802   1.435  0.3373 -0.1464 -0.2254
    1W        W54254  26.619   6.420   1.668  0.0401 -0.0598  0.0992
    1W        W54255  19.286   7.348   7.328  0.0021 -0.1848  0.0792
    1W        W54256   4.187   9.054   0.012 -0.2478  0.0699 -0.0867
    1W        W54257  30.314  20.673   6.700 -0.1533 -0.1216  0.1452
    1W        W54258  15.156   5.467   7.383 -0.4116  0.1919 -0.3991
    1W        W54259  20.095  20.575   7.319  0.2336 -0.0853 -0.0522
    1W        W54260   6.468  21.017   0.112  0.0292  0.1587 -0.0779
    1W        W54261  12.925  27.735   2.113  0.0859  0.0596  0.0772
    1W        W54262   9.934  19.364   8.359 -0.4649  0.0629  0.2459
    1W        W54263  14.070  20.225   1.688  0.0240 -0.0025  0.2778
    1W        W54264  16.617  22.616   0.617 -0.5342 -0.3018 -0.1280
    1W        W54265  24.026  18.485   8.284  0.0777 -0.0411  0.1083
    1W        W54266  13.950   5.950   0.769 -0.4093 -0.0543 -0.0487
    1W        W54267   9.608   1.721   2.884 -0.0899  0.1682  0.1613
    1W        W54268   3.285  29.017   2.361 -0.2316  0.1663 -0.1449
    1W        W54269  11.875  26.059   7.169  0.1575 -0.1063  0.0655
    1W        W54270  23.975  20.814   7.327 -0.2586  0.0318  0.1365
    1W        W54271  10.651  26.774   2.250 -0.2851  0.3352 -0.1765
    1W        W54272   0.017   9.087   7.583  0.1393  0.1119 -0.2041
    1W        W54273  29.844   5.948   8.330 -0.1341  0.1074  0.2051
    1W        W54274  22.023   8.300   0.245 -0.1499  0.1123 -0.1064
    1W        W54275  16.976  15.717   0.232 -0.2101 -0.1112 -0.4371
    1W        W54276  20.684   6.835   0.996  0.1698 -0.4473  0.1929
    1W        W54277   9.029  28.178   0.349  0.2467  0.0756  0.2489
    1W        W54278  26.836  27.208   7.376  0.1339  0.0216  0.2232
    1W        W54279   5.015  14.982   1.599  0.0830  0.1481  0.2428
    1W        W54280  11.042   0.494   0.392  0.0629 -0.1353  0.0209
    1W        W54281   8.256  24.295   0.789  0.0342 -0.0539  0.1702
    1W        W54282   2.896  28.539   3.429 -0.2510 -0.2433 -0.2778
    1W        W54283  27.709   7.039   3.444 -0.2660 -0.1128  0.0113
    1W        W54284  11.152   4.601   7.901  0.0989 -0.1325  0.3250
    1W        W54285  14.646  22.561   1.287 -0.0642 -0.0327  0.1755
    1W        W54286  23.531   6.095   2.105  0.1960  0.0168 -0.3736
    1W        W54287  11.571   7.879   8.420  0.2018  0.3202  0.0975
    1W        W54288  15.886  14.535   2.583  0.2714  0.0246 -0.1068
    1W        W54289  29.295   6.798   1.021  0.0901 -0.2009 -0.0186
    1W        W54290  24.796   0.729   7.927 -0.3355  0.0975 -0.1543
    1W        W54291  13.456   8.595   1.073  0.0099  0.0496 -0.2459
    1W        W54292  16.097  24.394   1.880  0.1654 -0.0440 -0.2120
    1W        W54293   2.237   1.754   7.041  0.1437 -0.3938 -0.2755
    1W        W54294   6.423   5.225   0.962 -0.0606  0.1225  0.4808
    1W        W54295  14.224  10.059   8.614  0.1510 -0.4012  0.4633
    1W        W54296  24.108   5.048   0.338  0.0172  0.1135  0.1477
    1W        W54297   7.810  23.782   1.213  0.2153 -0.2021 -0.1766
    1W        W54298  19.463  12.888   7.863  0.1347  0.2366 -0.0632
    1W        W54299   0.683   4.554   7.662  0.0934  0.1233 -0.0801
    1W        W54300  21.567  10.899   7.797  0.3451  0.0709 -0.0820
    1W        W54301  22.205  30.264   1.533  0.0446 -0.0840  0.3261
    1W        W54302  17.235  17.155   1.163  0.1455  0.2467 -0.2996
    1W        W54303  14.725  19.482   8.493  0.0758 -0.2658  0.1419
    1W        W54304  23.477   5.126   8.892 -0.0688 -0.3016 -0.2304
    1W        W54305  16.658  28.350   0.838 -0.2777  0.1944 -0.0501
    1W        W54306  16.257  12.707   0.187 -0.1401  0.2779  0.1128
    1W        W54307  10.162  14.979   1.620  0.0482  0.0210  0.1894
    1W        W54308  22.396  14.352   7.553 -0.5209  0.2768  0.0173
    1W        W54309  19.085  24.293   2.212  0.0065  0.2716  0.0084
    1W        W54310  10.102   6.489   7.985  0.2546  0.3046  0.0556
    1W        W54311  16.890   6.160   6.190  0.2401  0.1442  0.1037
    1W        W54312  29.606   1.589   3.554  0.3583  0.1387  0.2147
    1W        W54313  28.982  15.790   6.476  0.0140  0.1127 -0.0327
    1W        W54314   6.072  12.228   7.046 -0.0526 -0.1147 -0.1492
    1W        W54315  19.487  16.382   0.329 -0.0451 -0.0519  0.0976
    1W        W54316  26.763   5.584   7.853  0.0640  0.2246 -0.0606
    1W        W54317  15.350  14.915   1.835  0.1262  0.2552  0.0071
    1W        W54318   3.606  24.207   1.000 -0.1035  0.0731  0.2085
    1W        W54319   6.742   1.722   8.719  0.0833 -0.1221 -0.0893
    1W        W54320  19.452  24.219   6.853 -0.0690 -0.0201  0.3893
    1W        W54321  12.687   2.332   6.987 -0.0171 -0.0213  0.1628
    1W        W54322  13.745  26.548   3.080 -0.1407 -0.2040 -0.2259
    1W        W54323   8.815   9.646   0.283  0.2299 -0.0100 -0.1694
    1W        W54324   1.948  17.638   7.932  0.0962  0.0592 -0.1614
    1W        W54325   2.898   3.137   8.824  0.0859  0.1483  0.1059
    1W        W54326  12.954   9.160   8.921  0.0164 -0.0023 -0.0824
    1W        W54327   5.728  16.827   8.346 -0.0979 -0.1955  0.1015
    1W        W54328  21.438  10.967   1.422  0.0163  0.1896  0.0242
    1W        W54329  28.267   8.982   8.122  0.1342  0.1239  0.1721
    1W        W54330  10.365  12.326   7.101  0.1048  0.4878 -0.1736
    1W        W54331  18.876   2.820   2.208 -0.0573 -0.0193 -0.3273
    1W        W54332  22.924   5.580   0.058 -0.1044  0.0160 -0.0027
    1W        W54333  20.962  28.118   8.589  0.1673  0.3074  0.0404
    1W        W54334   3.935  29.285   1.522  0.0758 -0.1305 -0.1562
    1W        W54335  12.692  29.610   7.037  0.0830 -0.0498 -0.0742
    1W        W54336   6.520   1.680   0.532 -0.1182 -0.0096  0.1799
    1W        W54337   6.160  15.210   1.301 -0.0285 -0.1763  0.3481
    1W        W54338  26.280  12.683   0.486  0.0274  0.0070  0.1895
    1W        W54339   7.857   6.442   0.369  0.0556 -0.2025 -0.0346
    1W        W54340  25.507   8.230   0.635  0.1482  0.0675  0.0841
    1W        W54341  18.173  18.122   9.232  0.2015  0.2135  0.1963
    1W        W54342  16.569  24.878   0.687  0.1340  0.0330  0.0738
    1W        W54343  18.136  13.064   6.687  0.1738  0.2876  0.1381
    1W        W54344  21.130  20.555   7.118 -0.1240  0.2191  0.3377
    1W        W54345   8.850   9.973   2.789 -0.1526 -0.1111 -0.0191
    1W        W54346  11.999  25.875   2.543 -0.0751  0.1551 -0.1849
    1W        W54347  13.173  25.070   1.525 -0.1934 -0.1716  0.1288
    1W        W54348  19.703  21.127   0.832 -0.3901  0.1111 -0.2744
    1W        W54349  16.493   8.803   0.194  0.4336 -0.0064 -0.3670
    1W        W54350   1.400  18.045   6.986 -0.3036  0.0431  0.1756
    1W        W54351   5.468   9.555   0.059 -0.1678 -0.1902 -0.0293
    1W        W54352  17.307  14.406   0.457  0.1692 -0.0336 -0.1329
    1W        W54353  29.802  20.718   0.022  0.1736 -0.0311 -0.2310
    1W        W54354  15.596   6.946   5.628  0.0809 -0.4664  0.0721
    1W        W54355  25.576  24.330   2.375  0.0878  0.1400 -0.3619
    1W        W54356  21.557  14.756   8.747 -0.0160 -0.1028  0.2249
    1W        W54357  18.937  19.726   0.225 -0.1576 -0.2827 -0.2126
    1W        W54358   9.275   7.670   8.974  0.0912 -0.1465 -0.0832
    1W        W54359   8.320  24.803   8.252  0.2482 -0.0708  0.1173
    1W        W54360  11.268  29.615   8.485 -0.1916  0.0123 -0.0738
    1W        W54361   1.316  17.533   7.107  0.2224  0.0702  0.0087
    1W        W54362   3.495   3.030   7.453 -0.0449  0.1006  0.0242
    1W        W54363  22.368  21.890   1.504 -0.1025  0.1793 -0.3644
    1W        W54364  23.794   9.159   9.223  0.0037 -0.1163 -0.0283
    1W        W54365  18.138  20.842   8.733 -0.0232 -0.2857 -0.1260
    1W        W54366  16.439  12.606   2.264 -0.0049  0.0702  0.0071
    1W        W54367  28.438   0.967   2.880  0.0504  0.0809  0.0373
    1W        W54368  28.867  17.256   6.430  0.0700  0.5198  0.0260
    1W        W54369  16.650   2.561   1.890 -0.3079  0.4615  0.1239
    1W        W54370  16.091  29.282   1.851  0.0588 -0.1212 -0.1388
    1W        W54371  27.359  15.790   9.194  0.2300 -0.0887  0.0400
    1W        W54372  21.956   5.429   9.044  0.0469  0.3543 -0.1670
    1W        W54373  13.719  27.067   3.017  0.3304 -0.2784 -0.0914
    1W        W54374  16.577  21.482   7.499  0.1062  0.3177 -0.1004
    1W        W54375   9.234  23.629   0.787  0.2901  0.1006  0.0318
    1W        W54376  20.012   8.121   7.496 -0.1439 -0.1350  0.0370
    1W        W54377  19.202  12.921   5.992  0.0077 -0.0822  0.1849
    1W        W54378  16.560   7.306   5.578  0.5053 -0.0131 -0.0952
    1W        W54379  18.504  17.368   1.777  0.0159 -0.3575  0.0972
    1W        W54380  23.059  24.407   5.925 -0.2088 -0.0458  0.0451
    1W        W54381   9.192  19.286   2.320  0.0150  0.1071 -0.0462
    1W        W54382  10.957  14.763   0.048 -0.1242 -0.0983  0.1512
    1W        W54383   6.825   5.476   1.179 -0.2273  0.1394 -0.1413
    1W        W54384   8.115   2.594   0.911  0.1447  0.0929  0.3981
    1W        W54385  21.646  14.602   6.022  0.1382 -0.0773  0.1993
    1W        W54386   5.492  27.886   2.506 -0.1139 -0.0411  0.0072
    1W        W54387   1.158  15.803   0.534 -0.0431 -0.0211  0.1569
    1W        W54388   6.386   1.939   2.081  0.1317  0.1341 -0.2971
    1W        W54389  21.857   0.071   9.166  0.1276 -0.1447 -0.1561
    1W        W54390  26.299   4.688   8.179 -0.0553 -0.3153  0.0602
    1W        W54391   4.604   4.211   1.313 -0.0849  0.1680 -0.1077
    1W        W54392   0.945   8.500   7.943 -0.1105  0.2121  0.0757
    1W        W54393  24.501  14.038   0.479  0.0338  0.1557 -0.2706
    1W        W54394  13.648  23.139   7.614  0.0666  0.1379 -0.1660
    1W        W54395   4.582   7.624   6.421  0.0062  0.1445 -0.0576
    1W        W54396   8.648  20.626   1.592  0.1650  0.0629 -0.1256
    1W        W54397  13.543  21.320   7.942  0.2305 -0.1244  0.0714
    1W        W54398   0.644  21.566   1.269  0.0738 -0.0219 -0.1462
    1W        W54399  19.154  27.073   2.221 -0.1313  0.0914  0.0423
    1W        W54400  19.715   1.404   0.333 -0.0325  0.0640  0.1518
    1W        W54401  10.256  29.992   7.058 -0.0264  0.3159  0.1695
    1W        W54402   1.378  10.184   9.026 -0.0014 -0.2293 -0.2793
    1W        W54403   4.892   8.404   2.305  0.1468 -0.0397 -0.0450
    1W        W54404  12.811   4.988   0.787  0.0414 -0.2325  0.0443
    1W        W54405   6.264  25.278   7.048 -0.1426  0.3300 -0.2226
    1W        W54406  11.512   1.908   2.726 -0.0830  0.0528 -0.2906
    1W        W54407  18.730  10.876   6.993  0.2182  0.1302 -0.2530
    1W        W54408  27.686  13.564   8.499  0.2170 -0.0124 -0.3358
    1W        W54409   6.916   5.606   8.819 -0.0385 -0.1188 -0.0800
    1W        W54410  23.143   9.513   7.322 -0.2030 -0.3538 -0.0930
    1W        W54411   2.273  22.892   8.677 -0.3097  0.0235 -0.0929
    1W        W54412  11.697  21.020   1.491  0.0294  0.2711  0.0427
    1W        W54413  29.302  24.548   0.708 -0.0615 -0.0408  0.3108
    1W        W54414  14.673   1.820   9.086  0.4256  0.1264  0.0851
    1W        W54415  21.948   3.758   0.856 -0.2718  0.2290 -0.1031
    1W        W54416   5.052   9.100   6.396 -0.1142 -0.0340 -0.2597
    1W        W54417  19.546  29.345   2.676  0.4100 -0.0132  0.0377
    1W        W54418  11.836   6.891   1.473 -0.0155 -0.0233 -0.0455
    1W        W54419  18.457  14.184   6.683  0.0773  0.0942  0.0265
    1W        W54420  25.691   5.352   1.028 -0.2723  0.0749 -0.0688
    1W        W54421  15.465  30.189   1.120 -0.0415 -0.1133  0.2066
    1W        W54422   5.215   1.082   3.560  0.0556  0.0433  0.1843
    1W        W54423   3.964  25.820   0.770  0.0439 -0.0958 -0.1600
    1W        W54424  23.183  25.193   0.962 -0.1508 -0.2438  0.1423
    1W        W54425  16.319  23.756   7.427  0.0380 -0.0761  0.0899
    1W        W54426   3.015  17.339   7.352 -0.0481  0.2739  0.4609
    1W        W54427  23.827   1.538   2.731 -0.1607 -0.0202  0.0966
    1W        W54428  20.361  20.422   1.106  0.3045 -0.3406 -0.0974
    1W        W54429   7.592   5.818   0.300 -0.3494 -0.0373  0.1056
    1W        W54430   1.040   6.130   0.827 -0.1689 -0.0532  0.0897
    1W        W54431   5.909   9.639   8.971 -0.0624  0.1384 -0.2715
    1W        W54432  17.378  28.259   1.373  0.0636  0.0212  0.1059
    1W        W54433  17.140  12.516   6.800 -0.1035  0.0941 -0.1661
    1W        W54434  15.113   5.623   0.980 -0.0126 -0.0300 -0.2385
    1W        W54435  22.322  24.870   0.669 -0.0893 -0.1714  0.2177
    1W        W54436  11.376  19.774   6.589  0.0360  0.1863  0.3315
    1W        W54437   6.956  17.731   0.809  0.2539 -0.0509 -0.1569
    1W        W54438  14.418  22.791   9.065 -0.0521  0.0795 -0.2872
    1W        W54439   4.402   0.523   0.815  0.1835 -0.2346  0.2310
    1W        W54440  16.746  16.602   9.113 -0.1601 -0.1021 -0.2262
    1W        W54441   8.044   0.269   8.074 -0.0364 -0.0562  0.0841
    1W        W54442  29.454   5.827   1.174 -0.0861 -0.2022  0.0565
    1W        W54443  29.745  26.769   8.635  0.0924 -0.1065  0.0641
    1W        W54444   1.531   3.354   7.086 -0.0412 -0.3048 -0.4294
    1W        W54445  11.287   4.740   2.207  0.0190 -0.0578  0.2000
    1W        W54446   1.586   7.222   2.462  0.0202 -0.3628  0.0612
    1W        W54447  15.144   1.538   7.889  0.1546 -0.2495  0.0132
    1W        W54448  15.887  20.218   8.320  0.2405  0.1172 -0.1866
    1W        W54449  14.779  18.238   1.989 -0.1552  0.0236 -0.0172
    1W        W54450   7.242  10.909   2.882  0.0563 -0.1330 -0.1192
    1W        W54451   3.616  29.511   3.935 -0.1429 -0.0544 -0.0644
    1W        W54452  18.198  13.575   1.045  0.1681 -0.2232 -0.0689
    1W        W54453  27.895  18.686   7.429  0.0821 -0.1350 -0.1635
    1W        W54454  20.857  20.578   6.186 -0.0014 -0.2972  0.2363
    1W        W54455   1.028   6.059   1.650 -0.0174  0.0576  0.2465
    1W        W54456   9.348  27.610   2.570  0.0815  0.1132 -0.0829
    1W        W54457   0.371   5.445   6.656 -0.0264  0.0313  0.2257
    1W        W54458   0.057  27.812   2.154  0.1839  0.0417 -0.0160
    1W        W54459  27.103  25.793   0.129 -0.2051 -0.1041  0.1716
    1W        W54460  22.007  10.495   0.435 -0.0655 -0.2051 -0.0245
    1W        W54461  21.344   6.862   6.051 -0.0515  0.1641 -0.2858
    1W        W54462  28.393  10.893   1.901  0.1157 -0.1372  0.0454
    1W        W54463  18.378   5.327   0.897 -0.2515 -0.2429 -0.1102
    1W        W54464   8.550  30.214   0.971  0.1610 -0.1039  0.0247
    1W        W54465  12.950  15.645   2.511 -0.2249 -0.0181 -0.1291
    1W        W54466  27.634   4.844   8.818 -0.0651  0.1094 -0.1393
    1W        W54467  22.427   3.822   1.692 -0.4168  0.4397 -0.0724
    1W        W54468  18.387  27.933   0.690 -0.0362 -0.1435 -0.2115
    1W        W54469   5.349  23.292   6.710 -0.3382 -0.1575 -0.3092
    1W        W54470  27.137  25.545   0.880 -0.1891 -0.3434  0.0787
    1W        W54471   0.831   7.285   8.020 -0.0811  0.0826 -0.0734
    1W        W54472   4.187  14.633   7.819  0.1178  0.0834  0.0727
    1W        W54473   5.687  23.002   7.647  0.0614  0.2097 -0.1451
    1W        W54474  14.794   5.738   0.244 -0.1986  0.0227 -0.0183
    1W        W54475   5.290  21.553   7.921  0.2442 -0.2381 -0.1539
    1W        W54476   0.423  16.431   1.996  0.0543 -0.0297 -0.2972
    1W        W54477  12.070  20.526   1.174 -0.2834  0.2397  0.1030
    1W        W54478  20.175  20.720   8.582 -0.1597 -0.2111 -0.0023
    1W        W54479  12.860   7.496   0.892 -0.1705 -0.0702 -0.4492
    1W        W54480   4.185  12.278   9.212  0.2311  0.0518  0.4006
    1W        W54481  23.306   7.427   6.236 -0.0211  0.1138 -0.0242
    1W        W54482   6.375  20.339   7.528  0.1202  0.2730  0.0475
    1W        W54483   1.095  27.616   2.900  0.0714  0.0774 -0.0843
    1W        W54484  20.779   2.554   1.306 -0.2268 -0.2495  0.0216
    1W        W54485  10.818   6.951   7.719 -0.3209 -0.0756 -0.2472
    1W        W54486  28.461  20.851   7.509  0.1627 -0.1517  0.0787
    1W        W54487   3.505   2.957   0.891  0.2846 -0.1019 -0.1498
    1W        W54488  15.514  23.275   0.163 -0.0382  0.0760 -0.0454
    1W        W54489   2.604  26.400   1.074  0.0649  0.1139 -0.2035
    1W        W54490  14.702   5.230   7.450  0.2461  0.0646 -0.0470
    1W        W54491  17.399  10.404   8.758 -0.1376  0.1483  0.0654
    1W        W54492   6.700   5.817   7.590  0.1653 -0.1706  0.0340
    1W        W54493  11.196   1.951   7.811 -0.0776  0.3425 -0.2604
    1W        W54494   8.837  10.052   2.281 -0.2796  0.2274 -0.1672
    1W        W54495   0.405  11.353   7.328 -0.1747 -0.1585  0.0907
    1W        W54496  11.837  10.697   7.160 -0.1592 -0.2141 -0.0467
    1W        W54497   9.101  23.558   1.433  0.0518  0.1669  0.0095
    1W        W54498  20.021  26.038   1.248  0.0223 -0.0400 -0.0263
    1W        W54499  16.871  23.120   8.193 -0.3748  0.1605  0.3423
    1W        W54500  22.793   8.299   1.651 -0.0102  0.0807  0.1826
    1W        W54501  23.875  22.081   8.989 -0.1705  0.1472 -0.2516
    1W        W54502  10.171   1.959   2.101 -0.1347 -0.3213 -0.0260
    1W        W54503  13.035  25.767   8.491 -0.1508  0.2863 -0.3019
    1W        W54504   9.377  11.764   0.694 -0.3868  0.0123  0.1716
    1W        W54505   5.582  10.630   1.918 -0.2132  0.1634 -0.0963
    1W        W54506  12.125  16.665   7.952  0.2102 -0.0380 -0.1593
    1W        W54507   9.919  16.467   0.173  0.0939 -0.1745 -0.1802
    1W        W54508   9.182   8.789   0.844  0.0385 -0.1656 -0.1053
    1W        W54509  16.446  18.610   6.774 -0.1096  0.0725 -0.3311
    1W        W54510  28.158  15.103   6.425  0.1499 -0.1003 -0.1308
    1W        W54511  26.472   7.181   3.263  0.0250 -0.0501  0.1298
    1W        W54512  28.388   7.141   1.573  0.0583  0.0523  0.0841
    1W        W54513  20.353  28.403   9.112  0.2621 -0.1942 -0.1068
    1W        W54514  16.943  28.744   1.107 -0.1591  0.2516  0.1348
    1W        W54515  22.562  21.535   0.669 -0.0237 -0.2118 -0.0010
    1W        W54516  13.130  24.669   2.352 -0.0730 -0.2626 -0.2029
    1W        W54517  22.336  11.090   0.708  0.0937 -0.2190  0.1967
    1W        W54518  10.717   5.050   2.999  0.1223 -0.0591  0.0398
    1W        W54519  29.633  16.081   7.444  0.0212  0.0071 -0.2073
    1W        W54520  10.800  13.444   2.387 -0.0845 -0.2380 -0.0522
    1W        W54521  21.976  16.390   9.063 -0.0665  0.0101  0.3834
    1W        W54522  22.916  24.487   1.973  0.0295 -0.0173  0.0051
    1W        W54523   7.937   4.860   3.380 -0.0360 -0.0527  0.0258
    1W        W54524  11.191  19.882   8.130 -0.0042  0.2347  0.0526
    1W        W54525   7.550   3.798   4.016  0.2193 -0.1380  0.1772
    1W        W54526   6.655  27.727   9.193  0.3384  0.1338 -0.0304
    1W        W54527   4.611   3.679   7.651  0.1429 -0.0652 -0.3287
    1W        W54528  22.615  19.455   8.452 -0.0883 -0.1101 -0.1314
    1W        W54529  19.576  12.276   7.118  0.2668  0.0025 -0.0967
    1W        W54530  22.287  27.864   3.325  0.0076  0.0397 -0.2262
    1W        W54531  16.407   0.919   6.848  0.0139 -0.0464 -0.1124
    1W        W54532   6.023  29.016   7.521 -0.1195 -0.1647  0.1530
    1W        W54533   3.311   5.376   8.203  0.0006  0.0485 -0.0325
    1W        W54534  16.773  16.528   8.101 -0.0194 -0.2715 -0.0578
    1W        W54535  28.324  28.835   0.082 -0.1018 -0.0962 -0.2645
    1W        W54536  29.485  19.962   7.671 -0.3894  0.1986  0.3965
    1W        W54537  20.877  21.831   5.653 -0.2716 -0.1397 -0.1484
    1W        W54538  19.759   2.250   8.155 -0.1815  0.1193 -0.2317
    1W        W54539  28.083  16.519   1.268 -0.3300 -0.0599  0.0509
    1W        W54540  27.821   3.799   7.961  0.0114 -0.0012  0.0054
    1W        W54541   3.531  28.862   7.790  0.2345 -0.1912  0.0815
    1W        W54542  26.636  25.200   7.094  0.1379 -0.2385  0.0217
    1W        W54543  16.139  22.843   0.960 -0.0047 -0.1690  0.0780
    1W        W54544   1.869   9.609   1.103 -0.1865 -0.1340 -0.0262
    1W        W54545  16.006  19.400   6.551 -0.4435  0.0933  0.1672
    1W        W54546   1.705   4.829   1.325  0.3445 -0.0062 -0.0939
    1W        W54547   8.707  15.774   8.274  0.0599 -0.0208 -0.2463
    1W        W54548  19.687  26.410   7.081 -0.2256 -0.0521  0.0621
    1W        W54549  12.968  28.296   7.384  0.0181  0.2877  0.0257
    1W        W54550  29.749   7.107   1.229 -0.0636 -0.3087 -0.0071
    1W        W54551  13.923  13.962   0.524  0.0120 -0.0369 -0.1625
    1W        W54552  28.606  12.858   8.393 -0.4188 -0.2312 -0.1776
    1W        W54553  29.764  20.474   0.829  0.0252 -0.0168 -0.0595
    1W        W54554  29.804  12.877   1.688 -0.0199  0.0182 -0.0178
    1W        W54555  17.847  14.192   8.538 -0.0403 -0.1087 -0.1885
    1W        W54556  29.786  25.624   7.382 -0.1038  0.0048  0.0297
    1W        W54557  10.148  15.858   8.268 -0.0020  0.0072  0.0144
    1W        W54558  15.698  21.344   1.603  0.2904 -0.0746  0.2016
    1W        W54559  18.079  29.573   7.726  0.4591  0.0360 -0.3288
    1W        W54560   0.366   2.552   1.065 -0.1325 -0.1958  0.1193
    1W        W54561  10.720  18.857   7.304  0.1426 -0.0689  0.2316
    1W        W54562   9.292   7.047   1.805  0.0027 -0.0604  0.0167
    1W        W54563  23.215  12.077   1.269  0.1166 -0.0019  0.5235
    1W        W54564  13.620  20.930   8.558  0.3451 -0.2038  0.0160
    1W        W54565  11.756  14.219   1.046 -0.0733  0.2789 -0.2236
    1W        W54566  29.048  23.398   9.173 -0.0612  0.0703 -0.1977
    1W        W54567  27.527   2.024   7.491 -0.2195  0.0419  0.1904
    1W        W54568  28.755  22.405   9.261 -0.1238 -0.1206 -0.2726
    1W        W54569  16.237  26.437   8.977  0.1113  0.1519  0.1909
    1W        W54570  24.440  28.518   8.906  0.0440 -0.0028 -0.0052
    1W        W54571  18.787  20.577   7.777 -0.2353  0.1243  0.0951
    1W        W54572   8.767   2.017   7.410  0.2071 -0.0519 -0.1850
    1W        W54573  15.374  10.634   0.660 -0.0828 -0.0063 -0.0285
    1W        W54574  11.880  11.698   8.259 -0.1386 -0.1075  0.0199
    1W        W54575  15.610  28.072   7.215 -0.0687 -0.2097 -0.0018
    1W        W54576  22.023  18.974   6.566 -0.0067  0.0161 -0.1032
    1W        W54577  20.974   4.646   6.928  0.1337 -0.0369 -0.0325
    1W        W54578   1.765  13.919   1.973 -0.1691 -0.1417 -0.0047
    1W        W54579   8.470  10.810   0.889  0.0198 -0.0424 -0.2960
    1W        W54580  22.674  13.223   1.743 -0.1827 -0.3055  0.1612
    1W        W54581  17.660  30.244   1.604  0.1313 -0.0115 -0.0819
    1W        W54582  27.802  29.979   7.871  0.1288  0.0525 -0.2111
    1W        W54583  23.203  22.129   7.240 -0.1609 -0.0916  0.1617
    1W        W54584  24.948  29.473   2.753 -0.1318 -0.0647  0.1727
    1W        W54585  29.417  16.085   8.969 -0.0497 -0.0480 -0.2175
    1W        W54586   1.293  26.306   1.373 -0.1017  0.3079  0.0137
    1W        W54587  15.219  15.591   0.907 -0.1319 -0.1462 -0.2206
    1W        W54588   7.687  22.492   7.328  0.0210  0.0443  0.1028
    1W        W54589   9.772   0.085   2.229  0.2241  0.0286  0.0989
    1W        W54590  24.787   8.664   7.739  0.0069  0.0172  0.3598
    1W        W54591  14.777  12.549   1.887 -0.1734 -0.0690 -0.3527
    1W        W54592  20.302  23.922   6.820 -0.3043  0.0264  0.0068
    1W        W54593  23.960  28.074   7.819  0.2143  0.1710  0.3126
    1W        W54594   1.149  17.178   7.459 -0.1405  0.0752  0.2754
    1W        W54595  28.110  29.574   7.930 -0.0381 -0.0063 -0.2391
    1W        W54596   3.576   0.852   0.408 -0.1763  0.0424 -0.0690
    1W        W54597  10.119   8.836   7.261 -0.0827 -0.1913 -0.1427
    1W        W54598  27.437  10.528   0.740 -0.1244  0.3285  0.2491
    1W        W54599  15.929   8.420   8.670  0.4805 -0.1082 -0.0560
    1W        W54600  27.143  23.826   2.841  0.1494  0.1536 -0.0865
    1W        W54601  13.048  25.922   7.114 -0.1658  0.0144 -0.0311
    1W        W54602  23.512  27.181   7.387 -0.3173 -0.0027  0.0732
    1W        W54603  13.685  11.854   2.474  0.1385 -0.1600 -0.4148
    1W        W54604  14.382  17.795   8.778  0.2382 -0.1197 -0.0582
    1W        W54605   6.494  21.625   0.357 -0.0812 -0.1767  0.0454
    1W        W54606   2.953   1.339   8.605 -0.0615 -0.3021 -0.1748
    1W        W54607  26.288  23.436   1.327  0.1698 -0.1836  0.1294
    1W        W54608  21.936   3.563   6.489 -0.2240  0.1907 -0.2611
    1W        W54609   7.219  10.288   0.861 -0.0999 -0.0925 -0.0737
    1W        W54610  24.028  13.212   8.355 -0.1390 -0.0394  0.0597
    1W        W54611  20.223  25.707   0.383  0.1404 -0.3727  0.3997
    1W        W54612  24.475  16.322   1.182 -0.0480 -0.0584  0.1133
    1W        W54613  17.363  26.835   2.246 -0.1403 -0.1552  0.1507
    1W        W54614  24.156   6.249   0.854  0.1754 -0.0430 -0.0852
    1W        W54615  26.886  25.708   7.783  0.1024  0.3063 -0.0150
    1W        W54616  22.033   2.476   1.157 -0.0769  0.0920 -0.2356
    1W        W54617  25.188  21.901   0.720 -0.4202 -0.0219  0.0293
    1W        W54618  24.037   9.337   7.369  0.2165  0.1876  0.2063
    1W        W54619  24.822  19.173   6.353  0.3730 -0.0012 -0.2704
    1W        W54620  22.569  15.182   6.287 -0.2566 -0.1294  0.0615
    1W        W54621  23.029  29.896   0.271 -0.1002  0.4355  0.0163
    1W        W54622   0.480   5.639   0.030 -0.2103 -0.2673 -0.1174
    1W        W54623  14.745  11.221   1.847 -0.2657  0.5192 -0.0567
    1W        W54624  23.219  29.528   9.167 -0.2010  0.0068  0.5366
    1W        W54625  28.219  10.503   2.787  0.0740  0.1119  0.0369
    1W        W54626  21.748  30.035   1.771 -0.0108 -0.0869  0.2595
    1W        W54627  15.700  12.641   3.033 -0.2892 -0.3014  0.0117
    1W        W54628   5.706  26.830   8.999  0.0597  0.0132 -0.2757
    1W        W54629  20.071  11.531   0.176 -0.1258 -0.0977  0.1424
    1W        W54630  17.988   0.137   7.534  0.1825  0.2228 -0.1275
    1W        W54631   3.052  22.379   0.482 -0.0025  0.3968 -0.0317
    1W        W54632  21.821  20.882   8.552 -0.1688 -0.1551  0.0076
    1W        W54633  28.778  27.547   8.955 -0.0431  0.3476 -0.2988
    1W        W54634   4.273  23.431   7.672 -0.0369  0.2100  0.3358
    1W        W54635   5.043  21.680   6.790 -0.1309  0.2642  0.0860
    1W        W54636   7.891   4.574   1.769  0.3121  0.0926 -0.1765
    1W        W54637  12.960  20.510   7.204  0.1151  0.0494 -0.3736
    1W        W54638   9.015  19.217   8.182  0.1012 -0.0234 -0.0921
    1W        W54639  27.076  11.252   1.975 -0.1681 -0.2277 -0.1029
    1W        W54640  26.228  30.141   3.239  0.2502  0.0086  0.3953
    1W        W54641   8.724  24.553   6.965  0.0460 -0.2463 -0.0921
    1W        W54642  14.837   8.633   0.798 -0.0049  0.1255  0.0280
    1W        W54643   5.644  28.888   2.767  0.2315  0.0312  0.0130
    1W        W54644  24.188   9.820   7.392 -0.2276 -0.0218  0.1316
    1W        W54645  15.064  20.331   1.695  0.0016 -0.1202 -0.1894
    1W        W54646  21.501  25.379   6.753 -0.1077 -0.0712 -0.0369
    1W        W54647  13.448  19.866   1.827  0.1961 -0.2602  0.0671
    1W        W54648   5.077  23.716   6.590 -0.2395 -0.1269 -0.4366
    1W        W54649   6.350   0.194   0.650 -0.2026 -0.0649 -0.0308
    1W        W54650  24.577   5.722   1.165 -0.2537  0.0636 -0.1524
    1W        W54651  21.012  24.710   6.550  0.4120  0.2676 -0.0054
    1W        W54652  26.806  14.063   0.390  0.2516 -0.0102 -0.1292
    1W        W54653  29.100  25.356   0.453 -0.0037 -0.1925  0.1566
    1W        W54654   0.862  19.636   7.016  0.1773  0.0348 -0.4043
    1W        W54655  14.203  11.288   7.193  0.1391  0.2635 -0.1927
    1W        W54656   2.252   9.748   2.492 -0.1547  0.0075 -0.1069
    1W        W54657  27.481   1.219   8.085  0.3270  0.1734 -0.0949
    1W        W54658  28.488  19.613   1.888  0.1764  0.0615  0.1599
    1W        W54659  24.055  25.316   2.658 -0.1395  0.1113  0.0268
    1W        W54660  28.345   2.464   8.609 -0.1962 -0.1911 -0.0124
    1W        W54661  29.547  23.459   0.445 -0.1779  0.2965  0.0805
    1W        W54662  26.554  20.862   8.476 -0.3922  0.2192 -0.0668
    1W        W54663   6.098  12.194   0.999 -0.2688  0.0147 -0.1373
    1W        W54664  14.481  10.726   7.843 -0.2984  0.0038  0.0687
    1W        W54665   7.816  24.432   6.962  0.3726  0.0735  0.0512
    1W        W54666   2.982  29.074   8.284 -0.0967 -0.1002  0.1129
    1W        W54667   7.569  27.015   0.116  0.0287  0.1085  0.0035
    1W        W54668  29.357  28.428   7.466 -0.2804 -0.2323 -0.4785
    1W        W54669  14.838  26.150   1.183 -0.1932  0.0075 -0.1576
    1W        W54670   2.985   5.789   7.791 -0.0742  0.1738  0.0852
    1W        W54671  23.251  19.705   1.272 -0.1435 -0.1538 -0.1408
    1W        W54672  22.309   4.713   2.541 -0.0872  0.0465  0.0263
    1W        W54673  29.808  10.861   7.738  0.1122  0.2362 -0.1058
    1W        W54674  26.560  15.196   1.606 -0.3770 -0.0270  0.0416
    1W        W54675  22.107   0.090   7.947  0.2559 -0.1486 -0.3211
    1W        W54676   5.130  15.527   7.667 -0.2090 -0.1533 -0.1514
    1W        W54677   5.954   0.415   9.252  0.1963 -0.0079 -0.1246
    1W        W54678  18.588  13.245   9.040  0.1684 -0.0714  0.0544
    1W        W54679  19.004   8.780   6.749  0.0753  0.0895 -0.4263
    1W        W54680  26.527   3.977   1.167 -0.1642  0.0942 -0.2439
    1W        W54681  26.370   0.078   0.966  0.0284  0.0481 -0.2126
    1W        W54682  18.333  30.249   0.915  0.2409 -0.1282 -0.2376
    1W        W54683   6.138   1.941   7.827 -0.0596  0.0673 -0.1616
    1W        W54684  15.978  21.248   2.669 -0.0363 -0.3094 -0.0441
    1W        W54685  20.598  10.648   6.876 -0.1672 -0.0764 -0.0147
    1W        W54686  21.027  14.645   6.801  0.1994  0.3015  0.0919
    1W        W54687  17.025  15.599   0.765 -0.2728  0.2283 -0.1057
    1W        W54688  13.575   0.865   0.453 -0.1459  0.0721  0.2646
    1W        W54689   2.699   2.135   1.734  0.0057  0.0514 -0.1973
    1W        W54690  27.414  22.960   7.585 -0.3318  0.2627  0.0370
    1W        W54691  17.195  19.581   7.680  0.0432  0.0683 -0.0969
    1W        W54692  29.142   2.684   1.606 -0.1265 -0.0772  0.2045
    1W        W54693   2.629   8.042   1.888 -0.0968 -0.3107 -0.1868
    1W        W54694   4.578   3.388   2.395 -0.1235 -0.0048 -0.0942
    1W        W54695  28.379  15.994   1.169 -0.4901 -0.2635 -0.0070
    1W        W54696  27.014  24.108   1.879 -0.0225 -0.0546  0.0246
    1W        W54697   0.208  18.460   0.955 -0.3762 -0.1768 -0.3422
    1W        W54698  23.802  14.371   5.544  0.2147 -0.3259 -0.0131
    1W        W54699  11.441  26.187   7.367 -0.3067 -0.1248 -0.2518
    1W        W54700   9.746   2.151   0.414  0.1287  0.2233  0.2204
    1W        W54701  18.577   5.410   6.773  0.1960 -0.0115 -0.0266
    1W        W54702  10.654  12.520   0.784 -0.2304 -0.3079  0.1689
    1W        W54703  14.339  29.650   2.500  0.0082  0.1509 -0.2118
    1W        W54704  21.456   9.974   5.606  0.2805 -0.1187  0.0454
    1W        W54705  22.033  28.549   1.853 -0.0526  0.2008 -0.0388
    1W        W54706  15.727  23.884   8.556  0.2493  0.0970 -0.0808
    1W        W54707  16.073   4.154   1.347  0.0250  0.0408  0.3756
    1W        W54708  23.473   0.166   1.470  0.1850 -0.0014  0.1128
    1W        W54709  14.091  23.965   7.758  0.0746 -0.0974  0.1026
    1W        W54710  12.579  28.798   0.866 -0.0310  0.0115  0.0745
    1W        W54711  15.040  16.084   6.865  0.4297  0.0947 -0.3064
    1W        W54712  22.450  23.254   6.386  0.0154 -0.2462  0.2125
    1W        W54713  28.818  21.647   7.629  0.1145  0.1437  0.0465
    1W        W54714  23.333  17.612   8.928  0.2428 -0.2273 -0.3884
    1W        W54715  22.129  29.854   8.404 -0.1396 -0.0885 -0.4158
    1W        W54716  17.257  26.038   0.824  0.2318 -0.0288  0.2394
    1W        W54717  19.578  24.705   9.181  0.4769 -0.1822 -0.0482
    1W        W54718   5.812   1.409   9.076 -0.2310  0.0582 -0.1330
    1W        W54719  20.952  30.198   9.240 -0.1409 -0.0067 -0.1397
    1W        W54720  30.221   1.848   2.871 -0.0872  0.1548  0.2644
    1W        W54721   0.442  16.513   0.730 -0.0340 -0.0074  0.0340
    1W        W54722  19.662   3.834   1.462  0.0920 -0.1553  0.2198
    1W        W54723   2.824  19.462   6.503  0.3791  0.2816 -0.1407
    1W        W54724  12.673  15.309   0.704  0.0683  0.0016  0.1796
    1W        W54725  23.482   4.653   0.954  0.4205 -0.4093  0.0230
    1W        W54726   0.270  27.763   2.647  0.2722 -0.0058  0.1197
    1W        W54727  29.844  10.093   6.579 -0.1388 -0.1811  0.0081
    1W        W54728  16.594  17.674   0.142 -0.1589  0.0412  0.1609
    1W        W54729  10.346  10.802   8.042  0.1410  0.2570 -0.0986
    1W        W54730   5.240   0.035   9.012 -0.0224  0.2266  0.2137
    1W        W54731   7.761  10.808   2.932  0.0349 -0.1943 -0.1168
    1W        W54732   4.872  10.311   9.272  0.1043  0.3002  0.1277
    1W        W54733  10.835  25.090   6.199 -0.1000 -0.2017 -0.0070
    1W        W54734  26.472   7.909   1.645 -0.2102 -0.0369  0.0784
    1W        W54735   3.595   7.771   7.483 -0.0897 -0.1300 -0.1416
    1W        W54736  12.329   9.681   7.899  0.0340 -0.1934 -0.2647
    1W        W54737  26.226   7.292   0.906 -0.2032 -0.2108  0.0031
    1W        W54738  22.489   8.272   0.367 -0.0492  0.2303 -0.4352
    1W        W54739  24.454  20.582   6.434 -0.1149 -0.1259 -0.0006
    1W        W54740  16.939  25.184   2.219 -0.0251 -0.0821  0.0845
    1W        W54741   8.370  28.425   7.820 -0.0413 -0.3723  0.2385
    1W        W54742  17.736   4.979   2.616 -0.1917  0.2686 -0.2822
    1W        W54743  28.757   0.329   2.249  0.1884 -0.0302  0.0823
    1W        W54744   0.622  16.565   7.715  0.0671 -0.0370 -0.2223
    1W        W54745   7.718  10.127   1.875  0.0615  0.1374  0.1175
    1W        W54746   8.659  10.189   7.199 -0.0321 -0.1185 -0.0235
    1W        W54747  11.923  11.503   2.299 -0.0355  0.1218 -0.0503
    1W        W54748  26.576  11.373   0.091  0.2264  0.0999  0.0866
    1W        W54749  29.799  27.816   2.435  0.1467 -0.0821 -0.1416
    1W        W54750  11.697  25.197   2.238  0.0817 -0.2630 -0.2219
    1W        W54751  21.996   1.119   2.124 -0.1207  0.0912 -0.0446
    1W        W54752  22.756  11.978   6.466 -0.2809 -0.0704 -0.1686
    1W        W54753  16.619  28.505   1.733  0.0321  0.0042 -0.4985
    1W        W54754   6.446  24.318   7.602  0.1472  0.0143  0.0646
    1W        W54755  10.707  19.665   6.222  0.1706 -0.0390  0.0824
    1W        W54756  14.413   0.802   5.862 -0.1067 -0.2662  0.3544
    1W        W54757  12.690  14.367   7.064 -0.1327  0.2991  0.3287
    1W        W54758  22.713  26.597   2.919 -0.2253  0.2355  0.1854
    1W        W54759   9.980  20.854   7.651  0.0041 -0.0408  0.0122
    1W        W54760   8.640  11.424   1.434  0.1175  0.1161  0.0338
    1W        W54761   2.145  12.840   8.649 -0.2127  0.1560 -0.3103
    1W        W54762  16.917  22.314   8.525  0.2059 -0.2083 -0.3038
    1W        W54763  24.601   6.547   1.210 -0.2817  0.1290 -0.0430
    1W        W54764   1.062  11.467   2.953 -0.0420 -0.2212 -0.1237
    1W        W54765  17.982  27.532   3.115 -0.2460  0.1602  0.0486
    1W        W54766  12.277  26.663   3.432  0.1544  0.1189 -0.1334
    1W        W54767  10.440   9.207   7.573 -0.2157  0.0465 -0.1371
    1W        W54768  28.487  20.327   0.244 -0.1716  0.1727 -0.1328
    1W        W54769  25.386  15.236   6.405 -0.1758 -0.2725  0.0149
    1W        W54770   0.920   6.846   8.418 -0.1682 -0.2644 -0.2081
    1W        W54771   5.270   9.343   2.230  0.0611 -0.0260 -0.0443
    1W        W54772  14.694   7.838   0.510 -0.0757  0.0002  0.1492
    1W        W54773  15.517   9.593   9.048  0.0079 -0.0050  0.0217
    1W        W54774  17.386  10.829   6.138  0.0965  0.3832  0.0888
    1W        W54775   6.556  25.918   8.262 -0.0858 -0.0919 -0.0930
    1W        W54776  12.295   8.746   2.538 -0.0626 -0.0701 -0.3105
    1W        W54777  24.975  12.491   1.803  0.2099 -0.1397 -0.1101
    1W        W54778  13.720  28.588   3.099  0.0473 -0.0114  0.0232
    1W        W54779   7.885   9.222   1.582 -0.0360  0.1762  0.0897
    1W        W54780  17.586  19.268   6.747 -0.1288  0.1820 -0.1895
    1W        W54781   1.508  10.680   6.985  0.0355  0.1840  0.0335
    1W        W54782  12.486  29.422   1.027  0.0659 -0.1173 -0.0295
    1W        W54783  17.467  10.637   1.586 -0.0354  0.0578 -0.1164
    1W        W54784   8.162   6.417   3.094  0.1030  0.1374  0.1942
    1W        W54785   4.683  11.136   1.611  0.3040 -0.3775  0.1481
    1W        W54786  10.391  21.400   5.339  0.3867  0.1465  0.0927
    1W        W54787  16.838  21.757   6.822 -0.0176 -0.0729 -0.0849
    1W        W54788  17.489   4.118   7.713 -0.0227 -0.1110  0.1114
    1W        W54789   1.703  28.724   8.296  0.0095 -0.2605  0.1453
    1W        W54790   1.692  22.284   1.982 -0.0609 -0.3437 -0.0823
    1W        W54791   1.676   6.783   1.620 -0.0533  0.0545  0.2769
    1W        W54792  18.114  24.139   8.230  0.1728  0.1129 -0.1570
    1W        W54793   9.611  14.524   0.469  0.0710  0.3862 -0.0403
    1W        W54794   6.101  10.474   7.308 -0.2442  0.0850 -0.0831
    1W        W54795  11.418  14.482   1.539  0.0178  0.1119  0.1765
    1W        W54796  15.139  17.443   7.087 -0.1301  0.2939  0.3337
    1W        W54797  22.477   7.278   1.915 -0.0248 -0.0690  0.0886
    1W        W54798  29.862  18.985   7.409  0.1468  0.2601  0.0823
    1W        W54799  28.773   5.499   2.121  0.1329 -0.0776 -0.0574
    1W        W54800  29.149   0.969   1.515  0.1252 -0.1231 -0.0814
    1W        W54801  10.589  16.865   2.250  0.2921 -0.3544  0.4664
    1W        W54802  24.829  21.851   2.482 -0.0409  0.3741 -0.2585
    1W        W54803  25.812  25.400   7.516  0.2991 -0.3492  0.0352
    1W        W54804  26.725  11.652   7.159  0.0678  0.0719  0.2880
    1W        W54805   2.588  25.596   3.350 -0.1999 -0.0826 -0.0673
    1W        W54806  27.472   8.460   7.285  0.0796 -0.0667  0.0512
    1W        W54807   9.947  25.024   8.561  0.0817  0.1940  0.4409
    1W        W54808  26.653  23.168   2.164  0.1158 -0.0325  0.1281
    1W        W54809  27.002  17.499   7.333  0.1605  0.1757  0.1421
    1W        W54810  26.132  25.787   7.320  0.0822  0.0159 -0.0792
    1W        W54811  26.318   0.765   1.730  0.2700 -0.2817  0.5434
    1W        W54812   3.572  16.485   0.311  0.1405 -0.0901 -0.1521
    1W        W54813  23.958  21.469   1.987  0.2378  0.1287  0.0024
    1W        W54814   2.643  24.488   8.293 -0.3055  0.0916 -0.0709
    1W        W54815   8.028   8.955   2.822 -0.2359 -0.1010  0.2116
    1W        W54816  13.656  24.144   7.569 -0.2876 -0.1704  0.2533
    1W        W54817   5.019   1.165   1.044 -0.1151  0.0435 -0.1926
    1W        W54818  15.240  18.421   9.033 -0.0915 -0.1995  0.2105
    1W        W54819   3.196  11.337   1.700 -0.0572 -0.1086  0.4914
    1W        W54820  14.925   4.791   8.222 -0.3396 -0.0442 -0.2775
    1W        W54821   0.070   1.850   3.339 -0.2683 -0.0393  0.2813
    1W        W54822  13.632  10.097   3.294  0.0636  0.0386  0.1846
    1W        W54823  16.475   2.394   1.294 -0.1117 -0.6126 -0.1218
    1W        W54824  23.008  19.033   6.653 -0.1729 -0.0174  0.0284
    1W        W54825   2.676  26.431   0.535 -0.0745  0.1891 -0.1830
    1W        W54826  16.447   6.820   2.130 -0.0377 -0.2008 -0.1488
    1W        W54827  25.595  10.956   7.366  0.0895  0.1260  0.1957
    1W        W54828  18.296  20.673   7.837  0.0514  0.1392  0.1522
    1W        W54829  26.341  19.785   7.918 -0.0086 -0.2456  0.1474
    1W        W54830  26.357   0.641   7.950 -0.0321  0.0692 -0.1867
    1W        W54831   1.028  25.955   7.215  0.1288 -0.1874 -0.0500
    1W        W54832  12.802  18.314   8.884  0.0673 -0.2143 -0.0547
    1W        W54833  25.053  23.496   8.554 -0.1962 -0.1854 -0.1945
    1W        W54834  10.000  16.898   6.861  0.0317  0.0669  0.2947
    1W        W54835   3.697  25.771   1.221  0.0980  0.1190 -0.1981
    1W        W54836   8.903   4.873   2.851  0.1461 -0.0162  0.1674
    1W        W54837   4.827  29.403   3.119 -0.2601  0.0216  0.3738
    1W        W54838   1.157  21.181   7.458  0.2556 -0.1010 -0.3833
    1W        W54839  23.500   4.221   7.693  0.2179  0.2736  0.0979
    1W        W54840   2.233  16.422   0.546 -0.1369  0.1511 -0.1935
    1W        W54841  22.376   2.315   2.398 -0.0788 -0.1414 -0.0161
    1W        W54842  22.540   1.192   2.848  0.3883 -0.1668  0.2139
    1W        W54843   7.949   8.886   7.982 -0.1085  0.0690  0.1390
    1W        W54844  29.534  16.648   2.385  0.2465 -0.1553  0.1032
    1W        W54845  25.581  22.116   1.564  0.2352  0.2851 -0.0221
    1W        W54846  26.643  19.865   0.640 -0.1628 -0.1404  0.0265
    1W        W54847  15.728  28.178   6.661  0.0256 -0.0425  0.0082
    1W        W54848   4.603  25.033   8.952 -0.1403 -0.1125  0.0391
    1W        W54849  13.009   2.244   1.089  0.2482 -0.1027  0.0935
    1W        W54850  16.532  27.393   0.028 -0.0490  0.2488  0.1992
    1W        W54851  28.265  12.546   0.004 -0.2236 -0.0536 -0.1655
    1W        W54852  14.644  27.545   0.178 -0.1209 -0.0066  0.1776
    1W        W54853  11.483   2.386   2.546 -0.3694 -0.1155 -0.1003
    1W        W54854  24.131  17.999   5.726  0.1162 -0.0759 -0.1378
    1W        W54855   9.441   1.282   7.181 -0.2965  0.1365  0.5631
    1W        W54856  20.334   1.430   0.188  0.1883 -0.2655  0.1019
    1W        W54857   6.545  13.106   1.535 -0.0912  0.0673 -0.0708
    1W        W54858  19.351   4.651   1.675  0.2234  0.0765  0.1966
    1W        W54859   2.616  27.299   1.575 -0.0988  0.4934 -0.2591
    1W        W54860  24.633   0.360   2.182 -0.1527 -0.1975  0.1444
    1W        W54861   6.068   8.861   2.393 -0.3472 -0.0386 -0.0625
    1W        W54862   2.673   6.273   1.485  0.2026 -0.2513 -0.0299
    1W        W54863  12.664  15.907   2.146 -0.1100 -0.0690  0.1707
    1W        W54864   5.319   9.418   1.747 -0.0977 -0.2219 -0.0838
    1W        W54865  17.791   1.856   8.829  0.0081 -0.1380  0.0678
    1W        W54866  11.912   6.450   7.518  0.3907 -0.1519  0.0984
    1W        W54867  20.054  13.158   2.327  0.1340  0.1727  0.0089
    1W        W54868  23.079  21.208   7.398 -0.4380  0.0655  0.3074
    1W        W54869   9.976   5.195   7.791  0.0222 -0.2595 -0.1734
    1W        W54870  21.566  29.164   7.175  0.0031  0.4089  0.1104
    1W        W54871  20.384  13.077   1.555  0.3390  0.1357  0.1597
    1W        W54872  17.393  14.472   1.229 -0.4798  0.1218 -0.2864
    1W        W54873  26.992  24.369   7.588 -0.1546  0.0664 -0.0091
    1W        W54874  10.697  10.750   3.049  0.1102 -0.3374 -0.2421
    1W        W54875  23.683   5.644   2.373  0.1931  0.2167  0.1275
    1W        W54876  17.410  15.453   6.549 -0.0138  0.0843 -0.0495
    1W        W54877  24.328  21.501   8.572 -0.0450  0.0124 -0.1219
    1W        W54878  21.796   0.136   2.243  0.1708  0.1333  0.1715
    1W        W54879  26.020   6.315   9.198 -0.1350 -0.0068 -0.0650
    1W        W54880  18.190   9.772   6.576 -0.2031  0.1328 -0.0560
    1W        W54881  29.824   6.112   7.279  0.0318 -0.2539  0.1783
    1W        W54882   1.891  10.069   2.378 -0.0719 -0.0711  0.0600
    1W        W54883  14.625  12.272   0.833 -0.2804 -0.0642  0.0464
    1W        W54884   3.598  11.112   7.379 -0.1952  0.2893  0.1170
    1W        W54885  14.509  29.355   0.161 -0.1803  0.0454  0.0742
    1W        W54886  18.436   8.806   8.405  0.1111 -0.1809  0.0652
    1W        W54887  30.224   9.226   1.017 -0.0217 -0.1953 -0.1638
    1W        W54888   0.610   7.703   8.420 -0.4047  0.0212  0.1665
    1W        W54889   5.199   8.792   2.172 -0.1743  0.1741 -0.0165
    1W        W54890  16.740  14.482   7.983 -0.0859  0.1282  0.1886
    1W        W54891  29.939  11.501   0.493  0.0923  0.0194 -0.2764
    1W        W54892  22.392  17.866   0.181 -0.3491 -0.0925 -0.2685
    1W        W54893  12.222  29.023   0.120 -0.2852  0.1526  0.0578
    1W        W54894  12.168  25.497   8.673  0.2624  0.2824 -0.1104
    1W        W54895  26.721  30.290   1.298  0.0694 -0.1535  0.5355
    1W        W54896  13.813  25.777   0.938  0.0060  0.4169  0.1352
    1W        W54897  21.211  18.305   7.230  0.0496 -0.1350  0.0482
    1W        W54898   4.234  25.911   7.579 -0.2409 -0.1517  0.0591
    1W        W54899  27.885  21.303   8.539  0.1002 -0.0932 -0.1868
    1W        W54900   8.107  17.750   8.073  0.1266  0.0916  0.2585
    1W        W54901   8.912  27.715   0.152 -0.1787  0.3282  0.0345
    1W        W54902  17.542   6.522   7.834  0.2284  0.1432 -0.0663
    1W        W54903  17.167  11.737   8.725  0.0832  0.1173  0.2001
    1W        W54904   7.320  21.363   8.250  0.1088 -0.0302 -0.1200
    1W        W54905  20.279  20.938   1.105 -0.0530  0.0026 -0.2013
    1W        W54906  24.332  10.574   0.339 -0.1596 -0.0143 -0.6478
    1W        W54907  25.541  11.415   1.218  0.1375  0.1000  0.2552
    1W        W54908  21.288   6.141   6.623 -0.2716 -0.0077  0.1149
    1W        W54909  29.677   4.338   1.273 -0.1205  0.0158  0.1437
    1W        W54910  24.598   9.562   9.205 -0.1461 -0.1535  0.2765
    1W        W54911  20.961   3.408   1.539  0.0056  0.0120 -0.0318
    1W        W54912  29.331  28.952   8.254 -0.0744  0.0187 -0.1525
    1W        W54913  18.219   4.879   1.175 -0.1924  0.0197  0.2627
    1W        W54914  19.256  24.820   7.433  0.2741 -0.0767 -0.2442
    1W        W54915  28.914  11.614   1.994  0.3566  0.2221  0.0374
    1W        W54916   8.933   3.393   8.950  0.1352 -0.0808  0.1789
    1W        W54917   7.748   8.487   0.395 -0.1249 -0.1697 -0.4729
    1W        W54918  25.456   7.657   8.252 -0.0385  0.0146  0.0606
    1W        W54919  20.722   5.687   2.447  0.0712  0.2207  0.1583
    1W        W54920  18.416  22.202   8.887  0.2736 -0.1474  0.0299
    1W        W54921   4.189  13.037   1.044  0.2757  0.2145 -0.0613
    1W        W54922   8.651  12.855   1.142 -0.2548  0.3316 -0.2386
    1W        W54923   7.109  27.400   7.323 -0.2485  0.1424  0.0013
    1W        W54924   1.309  24.441   8.750  0.0195 -0.0860  0.1205
    1W        W54925  24.534  23.254   6.943 -0.0373  0.1093 -0.1016
    1W        W54926  13.697  24.659   2.476  0.1913 -0.4493 -0.0691
    1W        W54927  25.229   0.751   3.305 -0.0815 -0.0102 -0.4273
    1W        W54928   2.252  12.885   7.821  0.1998  0.0822  0.2528
    1W        W54929   6.844  13.416   1.969 -0.1518  0.0651  0.2932
    1W        W54930   2.695  29.223   9.063 -0.2949  0.1292  0.0018
    1W        W54931   1.887  30.235   1.253 -0.1243 -0.1389 -0.2476
    1W        W54932  13.891   2.669   2.763  0.2316  0.0481 -0.3869
    1W        W54933  28.026  24.105   1.099 -0.1439 -0.5605 -0.1009
    1W        W54934   1.406  12.469   1.163  0.1543  0.2131  0.1048
    1W        W54935  16.295   8.583   1.199  0.1692  0.3309 -0.0789
    1W        W54936   2.016  20.330   7.176  0.3834  0.0504  0.0025
    1W        W54937  25.181  27.215   0.577 -0.1152  0.0090 -0.0859
    1W        W54938  23.493  22.738   6.099  0.0291  0.0788 -0.0576
    1W        W54939  23.228  27.083   8.889 -0.5082 -0.2598  0.2844
    1W        W54940  24.964   2.589   1.845 -0.1989 -0.1407  0.0443
    1W        W54941  23.345  12.643   6.556 -0.4928  0.1083 -0.2504
    1W        W54942   1.244   9.191   6.821 -0.0469  0.2758 -0.0525
    1W        W54943  15.612  12.806   7.714 -0.0191  0.1498  0.2385
    1W        W54944  23.145  17.512   7.500  0.3744 -0.1369 -0.0066
    1W        W54945  29.262  14.932   8.107 -0.0233  0.0676  0.0620
    1W        W54946  12.784  10.313   2.539 -0.1151  0.0811 -0.1786
    1W        W54947  24.888  14.464   1.726  0.1121  0.0131 -0.1090
    1W        W54948  29.351  20.114   8.605 -0.0347 -0.0087 -0.0946
    1W        W54949  11.730  28.094   1.278 -0.0735 -0.0208 -0.0888
    1W        W54950  26.363  13.810   7.465 -0.1213  0.1951  0.1429
    1W        W54951  12.341  11.461   3.235  0.2018  0.0390 -0.1109
    1W        W54952   8.348   3.535   0.871  0.3512 -0.2378  0.3730
    1W        W54953   1.700  14.370   1.092  0.1379 -0.0964  0.1331
    1W        W54954   9.935  21.730   6.428 -0.2199 -0.3216 -0.2045
    1W        W54955  13.662  10.789   0.798 -0.0718  0.2445  0.0113
    1W        W54956   7.167  11.328   7.031  0.0218  0.0518 -0.0140
    1W        W54957  24.795  24.284   8.133  0.2450 -0.0223 -0.3762
    1W        W54958  12.603   4.396   1.882  0.2224 -0.0673  0.0370
    1W        W54959   8.284   9.139   8.259  0.0489  0.2813  0.0427
    1W        W54960  16.298   9.070   8.892  0.0155  0.3023  0.1500
    1W        W54961  16.252  17.326   0.928 -0.0005  0.2252  0.1930
    1W        W54962  27.193  22.913   0.977  0.0227 -0.0118  0.1148
    1W        W54963  23.879   3.872   1.384 -0.3578  0.1546 -0.0953
    1W        W54964   5.385  26.752   2.279 -0.1419  0.4372  0.2085
    1W        W54965  19.012  25.735   2.625  0.2037 -0.1885 -0.0830
    1W        W54966  26.380  13.341   1.671 -0.0339  0.0710  0.1445
    1W        W54967   3.307  10.759   8.252  0.0744  0.1524 -0.1159
    1W        W54968  17.897  13.572   7.006 -0.1267 -0.0199  0.0393
    1W        W54969   7.271  26.036   6.549  0.0979  0.0660  0.2597
    1W        W54970  15.852   5.174   0.015  0.4123  0.1163  0.2784
    1W        W54971  17.611  23.688   8.203  0.0037  0.0597 -0.2676
    1W        W54972  13.230  17.226   9.249  0.0497 -0.1149  0.1849
    1W        W54973   1.973   9.133   1.278 -0.0499  0.0672 -0.2569
    1W        W54974  18.397  22.301   6.829  0.0761  0.0825 -0.0579
    1W        W54975  21.389   3.982   0.228  0.0761  0.0247  0.1205
    1W        W54976   3.229  11.199   8.417  0.0556 -0.2170 -0.1240
    1W        W54977  22.919  25.781   7.190  0.0824  0.1858 -0.2088
    1W        W54978   1.069  25.927   1.608  0.1400 -0.1938  0.2568
    1W        W54979   8.774  20.922   0.334 -0.1039  0.1062 -0.0380
    1W        W54980   3.815  17.909   0.385  0.0437  0.2947  0.2002
    1W        W54981   1.846  19.293   0.523  0.2194 -0.0805  0.0968
    1W        W54982  20.819  11.643   0.904  0.2320  0.1151 -0.3285
    1W        W54983  21.931  24.720   1.608  0.1559  0.0132 -0.0408
    1W        W54984   0.656  26.236   8.322  0.0322 -0.1838  0.0071
    1W        W54985   9.998  14.425   8.395  0.1179 -0.0923  0.2833
    1W        W54986  13.627   1.421   8.082  0.1253  0.2612  0.0683
    1W        W54987   1.433  28.383   3.057 -0.1446  0.0399  0.0698
    1W        W54988   5.806   3.834   2.231 -0.0604 -0.2393 -0.0362
    1W        W54989  18.364  15.509   0.305  0.0949  0.0968 -0.1376
    1W        W54990   4.822  19.018   0.675  0.0006 -0.1882 -0.1275
    1W        W54991   5.447  27.834   8.906  0.2367  0.1726 -0.0046
    1W        W54992  27.775  11.545   7.853  0.2408  0.1250 -0.1709
    1W        W54993  19.588   0.778   8.082 -0.0330  0.1158 -0.4173
    1W        W54994  14.615  20.630   1.326 -0.0023 -0.1115  0.0093
    1W        W54995  23.101  13.026   7.991  0.0195  0.1516  0.0152
    1W        W54996   7.047  28.125   2.652 -0.0647 -0.2243 -0.0097
    1W        W54997   3.804   6.559   7.941  0.2970 -0.0535  0.0259
    1W        W54998  11.614  17.359   6.928  0.1063  0.2126 -0.1181
    1W        W54999  15.618  17.791   1.672  0.0271  0.0976  0.0744
    1W        W55000  29.867  23.382   7.673 -0.3656 -0.1334  0.0507
    1W        W55001   4.657  13.765   7.666  0.4373 -0.0398  0.3735
    1W        W55002  20.219  28.087   6.807 -0.1851 -0.3335  0.1778
    1W        W55003   8.045   8.680   6.497 -0.0572  0.0287 -0.1714
    1W        W55004  10.316   8.531   8.440  0.0613  0.1374 -0.2238
    1W        W55005  23.973  30.135   8.521  0.2538 -0.1175  0.0438
    1W        W55006  28.134   5.131   2.576  0.2110 -0.1716  0.3219
    1W        W55007  20.068  21.212   1.958 -0.1704  0.0078  0.2251
    1W        W55008   9.444   8.259   7.500  0.1985 -0.2285 -0.2853
    1W        W55009  26.449   1.551   0.342 -0.3877  0.0037  0.0291
    1W        W55010  17.294   1.059   0.751  0.1649  0.1497  0.1187
    1W        W55011  22.240  22.854   8.559  0.0480 -0.1079  0.1294
    1W        W55012   8.922  13.324   1.110  0.1361  0.0055  0.0024
    1W        W55013  10.789   0.043   0.414  0.1119  0.3192 -0.3207
    1W        W55014  16.058   5.380   1.346 -0.0358  0.1882 -0.1392
    1W        W55015   9.250  15.861   8.141 -0.0524  0.0156  0.2108
    1W        W55016   3.183   9.499   6.056 -0.1198 -0.1668  0.0283
    1W        W55017  19.675  17.650   1.871 -0.2138  0.2535  0.3251
    1W        W55018  10.706  22.933   7.378 -0.1509 -0.0172 -0.1537
    1W        W55019  20.215  22.748   0.509 -0.1499 -0.0296 -0.4228
    1W        W55020  27.082   9.331   7.947  0.1867  0.1462 -0.2078
    1W        W55021   7.697   3.410   1.648 -0.1116 -0.1755  0.1616
    1W        W55022  30.208  24.387   7.680 -0.1322 -0.2857  0.0221
    1W        W55023  19.227   3.000   8.238 -0.0944  0.2972  0.1029
    1W        W55024  24.612  19.064   0.133 -0.1334  0.0641  0.2333
    1W        W55025  19.533   8.284   6.241  0.2254  0.1399  0.0732
    1W        W55026  11.907  16.153   6.604  0.1304 -0.0576  0.2204
    1W        W55027  13.655   5.642   1.071  0.1991  0.1195  0.3382
    1W        W55028   4.530   3.452   1.684  0.0326  0.1767 -0.3178
    1W        W55029  27.965  23.779   7.561 -0.0904 -0.1943 -0.0966
    1W        W55030  12.972   0.931   2.377  0.2411  0.2416 -0.3385
    1W        W55031  18.131  27.651   7.191 -0.0448  0.1816 -0.0555
    1W        W55032  25.495   6.111   0.261 -0.0369  0.0328 -0.3389
    1W        W55033   4.102   9.612   6.599 -0.0364  0.2806  0.5134
    1W        W55034  25.031   5.485   7.603 -0.0059  0.0245 -0.0162
    1W        W55035  16.952   9.988   7.429 -0.1329 -0.0668  0.1644
    1W        W55036  22.838  16.574   8.486  0.1219 -0.0975  0.0131
    1W        W55037  28.084  14.987   0.903 -0.2825  0.1747 -0.1052
    1W        W55038  10.681  13.983   8.494  0.1808 -0.1701  0.2614
    1W        W55039  15.974  10.593   7.502 -0.3343  0.1932 -0.0667
    1W        W55040  17.065  24.904   0.833 -0.0964  0.3532 -0.2023
    1W        W55041   1.137   5.056   8.863 -0.0366  0.2063  0.1162
    1W        W55042   9.713  13.597   1.492 -0.1498  0.0009  0.1519
    1W        W55043  20.951   3.170   0.728 -0.0300  0.0095  0.0438
    1W        W55044  20.527  15.909   1.273 -0.0257  0.0386  0.1021
    1W        W55045  27.632   0.164   0.898 -0.0256  0.2333  0.0513
    1W        W55046   0.368  24.106   1.303  0.3007 -0.0754  0.0894
    1W        W55047  23.128  20.419   5.998  0.0558  0.1116  0.0906
    1W        W55048   7.275  17.875   2.393  0.2669 -0.0434 -0.1837
    1W        W55049  22.956  21.190   0.086 -0.0516 -0.3584  0.4564
    1W        W55050   4.354   2.465   0.614 -0.1701 -0.1233 -0.2106
    1W        W55051  21.324  14.853   6.429 -0.0740 -0.2128 -0.1789
    1W        W55052  15.406  15.081   2.434  0.1751 -0.1409 -0.0812
    1W        W55053  10.706  27.059   6.783  0.0932 -0.1798 -0.2625
    1W        W55054   3.913  14.906   6.834 -0.2920 -0.0180  0.1086
    1W        W55055  23.791   8.685   8.461  0.1086  0.1360 -0.3252
    1W        W55056  21.162  10.220   0.059  0.3314  0.0928 -0.1744
    1W        W55057  19.899  17.093   7.266  0.0065 -0.0576 -0.2530
    1W        W55058   9.674  22.753   7.919 -0.3359  0.0824  0.0377
    1W        W55059  21.720  11.466   9.109  0.1222 -0.1522 -0.1304
    1W        W55060  28.752   9.174   6.876  0.1247 -0.0742 -0.0393
    1W        W55061  17.037  22.508   7.246  0.0290  0.1614  0.3330
    1W        W55062   7.294  22.773   7.153  0.0272 -0.1155  0.0146
    1W        W55063  17.013   1.232   8.538  0.1207 -0.1312 -0.0887
    1W        W55064  14.690  26.396   8.752  0.1742 -0.1150 -0.0686
    1W        W55065  10.340   9.922   2.548  0.2144  0.1869  0.0697
    1W        W55066  14.651   9.234   7.870 -0.0950  0.0957  0.0526
    1W        W55067  13.109  26.276   2.311 -0.0819 -0.0813 -0.2475
    1W        W55068   9.660  25.721   0.531  0.0017  0.1188 -0.1125
    1W        W55069   6.770   4.043   2.338  0.0400 -0.3559 -0.0466
    1W        W55070   0.914  19.077   8.649 -0.3806 -0.2067  0.3308
    1W        W55071  24.268  27.241   9.184 -0.0661 -0.0093 -0.0218
    1W        W55072  17.166   1.066   7.850 -0.1519 -0.2013  0.2330
    1W        W55073  29.153  24.786   6.983  0.0065 -0.1351 -0.0145
    1W        W55074  24.196  28.750   2.261  0.3130 -0.2571  0.0677
    1W        W55075   0.075   1.781   8.522 -0.0846  0.2704  0.0157
    1W        W55076  21.626   7.174   2.308 -0.1180 -0.0397 -0.1428
    1W        W55077  19.837  11.674   7.763 -0.1854  0.2002 -0.2481
    1W        W55078  24.310   6.038   1.892 -0.1338 -0.0341  0.0219
    1W        W55079  19.025  28.753   7.442 -0.0859  0.2217  0.2111
    1W        W55080  20.211   4.680   9.257  0.2822  0.0292  0.0771
    1W        W55081  10.427  14.373   8.682  0.0089  0.2504 -0.0229
    1W        W55082   7.807  23.321   2.567 -0.1822  0.1390  0.1699
    1W        W55083  19.707  29.429   6.887 -0.0458  0.2100  0.1378
    1W        W55084   1.940  27.447   2.825 -0.1223 -0.0644 -0.0987
    1W        W55085  22.590  19.187   0.845 -0.2818 -0.1236 -0.3515
    1W        W55086  27.805  17.988   6.999  0.1596 -0.1477  0.0926
    1W        W55087   7.752   5.475   1.286 -0.2863  0.1980  0.0638
    1W        W55088  26.828  24.704   7.210  0.2629 -0.2931  0.2604
    1W        W55089   6.492  16.557   9.268 -0.0243 -0.1582 -0.0579
    1W        W55090  23.926  24.930   2.247 -0.0931  0.0852 -0.1799
    1W        W55091  10.971  17.982   6.820 -0.0446 -0.4981  0.0082
    1W        W55092  30.025  25.485   0.666  0.0440 -0.1965  0.3246
    1W        W55093   8.700  19.573   6.440 -0.0254 -0.0730  0.0475
    1W        W55094   4.913  15.554   1.591 -0.1382 -0.2723  0.1329
    1W        W55095  27.153   4.066   2.297 -0.0681 -0.0299 -0.4135
    1W        W55096  11.947  19.062   6.987  0.1067  0.1625  0.0552
    1W        W55097  29.159  22.803   7.282 -0.1793 -0.1113 -0.2209
    1W        W55098  12.481   0.630   8.908  0.3824 -0.1173  0.0864
    1W        W55099   1.547   2.200   2.985  0.0320  0.0311 -0.0495
    1W        W55100   1.660   6.818   8.483 -0.2298  0.0417  0.0306
    1W        W55101  29.484  16.844   9.106  0.1998 -0.1311  0.0205
    1W        W55102  13.492  21.656   8.412  0.0198  0.1150 -0.0951
    1W        W55103  12.242  26.927   0.751 -0.0019  0.0719  0.1846
    1W        W55104   7.594   5.062   4.115  0.1457 -0.2679 -0.0622
    1W        W55105  13.458  18.917   1.153 -0.1186  0.0555  0.1835
    1W        W55106   5.652  29.448   7.760 -0.1205  0.3842 -0.1362
    1W        W55107  21.901  15.356   1.633 -0.0592 -0.2334  0.3763
    1W        W55108  18.568  16.651   1.647 -0.1557  0.1024  0.1688
    1W        W55109   1.082   2.258   1.641  0.3083  0.0798  0.1557
    1W        W55110  19.434   2.706   9.145  0.0668 -0.0125 -0.1993
    1W        W55111  25.228  27.406   7.716 -0.1012  0.0073  0.1406
    1W        W55112   0.769  12.885   9.155  0.0772  0.3122  0.2516
    1W        W55113  19.723  14.873   9.217  0.2822 -0.2204 -0.0401
    1W        W55114  20.114  18.639   8.295 -0.0578  0.3418  0.0375
    1W        W55115  12.330   4.458   8.447  0.2927 -0.0536  0.0806
    1W        W55116  11.669  26.830   0.858  0.0959 -0.2693 -0.1948
    1W        W55117  20.832   5.191   8.330 -0.3187 -0.2560  0.0514
    1W        W55118  23.601  20.958   8.086  0.3679  0.0807  0.0186
    1W        W55119  29.413   9.744   1.031 -0.1224 -0.4720 -0.1000
    1W        W55120  27.793  16.694   8.162 -0.1119 -0.0413  0.2585
    1W        W55121  26.432  10.457   8.683  0.1254 -0.1486 -0.0386
    1W        W55122  30.159  21.023   9.099 -0.0089 -0.1303  0.0313
    1W        W55123  11.603   9.125   6.442  0.2591 -0.1947  0.2178
    1W        W55124  25.692  26.849   1.014  0.0274 -0.0387 -0.1907
    1W        W55125   0.080  28.949   0.698  0.2078  0.1304  0.2604
    1W        W55126  16.998  19.425   6.415  0.1520 -0.0618 -0.2178
    1W        W55127   3.733   3.943   0.376  0.2787 -0.0930  0.2764
    1W        W55128  18.483   9.780   1.583 -0.4278  0.1653  0.0933
    1W        W55129  14.062  25.047   1.770  0.3455 -0.2049 -0.0590
    1W        W55130  15.813   7.511   6.204  0.1410  0.2184 -0.1562
    1W        W55131  11.680  11.008   1.052  0.2897 -0.0362 -0.2588
    1W        W55132   6.634   1.308   8.434  0.1513  0.1733 -0.0774
    1W        W55133   3.957   1.195   0.319 -0.0769 -0.3191 -0.0686
    1W        W55134  24.455   5.327   7.660  0.2639 -0.1514 -0.3061
    1W        W55135  12.476  11.514   2.267 -0.1202  0.0489  0.2915
    1W        W55136   9.970  28.084   9.125 -0.0025 -0.0384  0.2889
    1W        W55137  16.298  29.244   3.042  0.0466 -0.1458  0.0885
    1W        W55138   6.088  12.620   1.245 -0.0672 -0.1326 -0.2393
    1W        W55139  21.922  21.089   7.556  0.3269 -0.1568 -0.1405
    1W        W55140  15.783   1.870   7.232  0.1663 -0.3315 -0.0091
    1W        W55141  19.326   1.951   7.974  0.2559 -0.1564  0.0598
    1W        W55142  25.124   6.330   0.587  0.0638  0.1249  0.1990
    1W        W55143  27.564  10.354   6.587 -0.0369  0.3695 -0.0425
    1W        W55144  22.083   1.496   7.743 -0.0901  0.2140 -0.2429
    1W        W55145  12.924  28.539   8.604 -0.4479  0.0915  0.2529
    1W        W55146  10.217  16.496   6.131 -0.0758  0.1046 -0.0982
    1W        W55147   8.840  21.346   6.766  0.0736 -0.3664 -0.1385
    1W        W55148  20.296  19.041   1.944  0.1786  0.1037 -0.0599
    1W        W55149  25.920  25.849   9.062 -0.1867  0.0796  0.3088
    1W        W55150  19.278   7.484   8.059 -0.2198 -0.0713 -0.1733
    1W        W55151  10.803  10.905   8.738  0.1126 -0.0240  0.1670
    1W        W55152   6.690  27.083   7.967  0.0366  0.0176 -0.0201
    1W        W55153  13.819  25.909   7.081 -0.0823  0.0043  0.3425
    1W        W55154  17.322  10.352   2.072 -0.0120  0.1704  0.1933
    1W        W55155   8.027   9.314   0.745 -0.0966  0.1160  0.1884
    1W        W55156   3.955  11.678   1.088 -0.0772 -0.0976 -0.0676
    1W        W55157   1.107  12.883   8.794 -0.0783  0.1191  0.1936
    1W        W55158   8.230   8.165   0.237  0.1917  0.4255  0.0237
    1W        W55159  28.440  10.334   7.544  0.0706 -0.1336 -0.1437
    1W        W55160  13.099   7.768   1.801  0.2443  0.2118 -0.2666
    1W        W55161  14.290   8.417   9.136 -0.1432  0.3509  0.1049
    1W        W55162   9.489   1.642   8.759  0.0682  0.2121 -0.0587
    1W        W55163  19.590  26.923   2.424 -0.1316  0.1750 -0.3507
    1W        W55164   1.432  16.172   0.148  0.1041  0.0634  0.1755
    1W        W55165  24.659  22.611   9.271 -0.0003 -0.1800 -0.1115
    1W        W55166  30.135  27.253   2.082  0.2246  0.3526 -0.3199
    1W        W55167   4.785  15.305   1.167  0.0420 -0.0955 -0.1580
    1W        W55168   0.520   9.293   7.360  0.1359  0.3600  0.3694
    1W        W55169  13.883  28.044   0.014 -0.0029 -0.0345  0.1813
    1W        W55170  27.658  29.007   8.712 -0.0436 -0.1303 -0.0606
    1W        W55171  29.490  26.900   0.644  0.1535 -0.0982  0.0253
    1W        W55172  24.466   3.281   8.150 -0.2128  0.3000 -0.3084
    1W        W55173  21.324  20.982   8.482 -0.2127  0.3352 -0.0493
    1W        W55174  17.449  18.285   8.645 -0.1426 -0.0892 -0.1378
    1W        W55175  16.650  11.552   0.502  0.1769  0.0843 -0.5718
    1W        W55176  28.001  25.295   7.648 -0.1008 -0.1015  0.0842
    1W        W55177   0.746  26.739   3.256 -0.0813 -0.2414 -0.0490
    1W        W55178  21.946  12.909   0.369 -0.3054 -0.0667  0.0804
    1W        W55179   1.768  30.098   0.412 -0.1845 -0.0351 -0.0301
    1W        W55180  28.369  20.531   1.862 -0.3280  0.1078 -0.1517
    1W        W55181  12.117  24.252   6.470 -0.0635  0.1125  0.3112
    1W        W55182  19.225  16.719   6.993  0.0803 -0.1657  0.2075
    1W        W55183  25.657  26.486   7.914  0.2301 -0.0422  0.1307
    1W        W55184   1.688  13.881   0.265  0.1429 -0.2214 -0.0013
    1W        W55185   0.734  28.398   7.790  0.1285 -0.0708  0.3428
    1W        W55186   4.465  24.491   0.905 -0.1216 -0.3429 -0.0345
    1W        W55187   5.840  29.673   0.544 -0.0496 -0.0423 -0.0842
    1W        W55188  25.308  26.466   0.185  0.2715  0.2719  0.0593
    1W        W55189  23.683  19.792   0.857 -0.0975  0.1225  0.2351
    1W        W55190  26.721  26.197   0.179  0.0621 -0.1972  0.0228
    1W        W55191  13.240  26.854   3.052  0.1368 -0.0658  0.2312
    1W        W55192   6.424  27.421   1.899  0.0407 -0.1209  0.1231
    1W        W55193  16.443  13.871   2.400  0.0037  0.0723  0.1050
    1W        W55194   6.864  10.596   6.726 -0.1224 -0.4332 -0.3734
    1W        W55195   5.274  24.676   1.121 -0.0079  0.1710 -0.0066
    1W        W55196  10.251  24.100   8.655 -0.2728 -0.3602 -0.0667
    1W        W55197  29.430  18.560   0.717  0.0213  0.0936 -0.1301
    1W        W55198  13.940   6.231   6.137  0.1327  0.1092  0.0315
    1W        W55199  26.729   1.484   8.778  0.0738 -0.1074 -0.1219
    1W        W55200  15.684  25.909   7.246  0.1724  0.2142  0.1287
    1W        W55201  21.657   8.039   8.343  0.2939  0.0098  0.1044
    1W        W55202  14.844  10.157   0.565  0.4004  0.1800 -0.2388
    1W        W55203  27.561   4.179   8.213  0.2382 -0.0779 -0.0598
    1W        W55204  24.714  29.985   1.347 -0.0473  0.0995  0.0957
    1W        W55205  14.089  12.623   4.081 -0.1030 -0.1233  0.3743
    1W        W55206   8.827  21.553   7.749  0.1202  0.1088 -0.2853
    1W        W55207  23.427   8.502   0.982  0.1405 -0.1311 -0.3750
    1W        W55208   8.783  12.251   1.829  0.1914  0.1269  0.2612
    1W        W55209  17.329  29.103   6.777  0.3358  0.3222  0.1023
    1W        W55210  25.711   8.064   1.148  0.1569 -0.1076 -0.0564
    1W        W55211   2.366  29.405   0.287 -0.1139 -0.3186  0.0645
    1W        W55212  11.131  19.400   8.082  0.0811  0.0445  0.0787
    1W        W55213  27.071  16.014   0.247  0.1999 -0.1324 -0.1235
    1W        W55214  14.618  14.031   2.816 -0.1047 -0.0460  0.0569
    1W        W55215   1.635   0.136   7.721 -0.0426  0.0361  0.1154
    1W        W55216   8.418   5.822   3.185  0.1302  0.0299 -0.1066
    1W        W55217  15.266  17.452   2.431  0.2808 -0.1212  0.1835
    1W        W55218  26.027   2.643   9.163 -0.0381  0.0869 -0.0421
    1W        W55219  26.264   5.465   7.791  0.1189 -0.1449 -0.0930
    1W        W55220  22.038  24.498   6.982  0.0322 -0.4370  0.2963
    1W        W55221   6.971  15.326   8.702 -0.0143  0.0669  0.0755
    1W        W55222  19.850  13.725   0.861 -0.3738  0.0289  0.3382
    1W        W55223   6.295   0.053   1.095 -0.6215  0.2958 -0.0123
    1W        W55224  26.278   4.063   7.404  0.0711 -0.0293 -0.2961
    1W        W55225  16.723  22.231   6.941 -0.3576 -0.1019  0.2328
    1W        W55226  14.683  16.948   1.800 -0.1119  0.1294 -0.0213
    1W        W55227   0.183  17.230   7.428 -0.1899 -0.1582 -0.0255
    1W        W55228  16.339   3.555   1.345  0.2882  0.2222  0.3485
    1W        W55229   9.496  21.690   7.375 -0.0541  0.2569 -0.1875
    1W        W55230   9.621  24.890   1.769 -0.0483  0.0120  0.0784
    1W        W55231  28.755  22.408   0.936 -0.2442 -0.0397  0.0347
    1W        W55232  20.448  11.032   6.162 -0.0593 -0.3257  0.2589
    1W        W55233   9.626  15.983   0.198 -0.0424 -0.3332 -0.0153
    1W        W55234   4.879   9.248   1.901 -0.1293  0.1389 -0.2248
    1W        W55235   8.315  10.359   8.485  0.0884  0.1025  0.0204
    1W        W55236  10.241  20.415   7.371 -0.1580  0.1481  0.0962
    1W        W55237   9.577  19.920   9.227  0.0965  0.1334  0.0649
    1W        W55238  19.783  20.219   8.082  0.0597 -0.0986 -0.1608
    1W        W55239  29.669  26.372   7.847  0.2057  0.0267 -0.1429
    1W        W55240  16.731  10.604   7.181 -0.0918 -0.1699 -0.1795
    1W        W55241  15.755   2.459   7.716 -0.1057 -0.1128  0.0757
    1W        W55242  24.634  22.963   2.071  0.1365  0.0519 -0.1633
    1W        W55243  13.409   6.011   1.887  0.2277 -0.2382  0.4078
    1W        W55244  25.424   5.426   3.171  0.0151  0.1088  0.2891
    1W        W55245   2.128   0.225   0.643 -0.0897 -0.2650 -0.3713
    1W        W55246  26.306  18.599   0.074 -0.1216 -0.2763 -0.2250
    1W        W55247  14.317   2.032   8.299 -0.0586  0.0162 -0.2350
    1W        W55248   3.600   4.502   1.870 -0.0617 -0.0087  0.1228
    1W        W55249  21.294   1.838   1.978 -0.0358 -0.0183 -0.2008
    1W        W55250  28.865  11.228   0.003  0.0300 -0.0001  0.0837
    1W        W55251  17.592   6.116   6.389 -0.2638 -0.2872 -0.1766
    1W        W55252   5.545  15.597   0.635  0.1279 -0.0409 -0.0893
    1W        W55253  15.078  28.254   0.855  0.3736  0.2194  0.1577
    1W        W55254  17.819  15.429   0.338 -0.1626 -0.2230 -0.2480
    1W        W55255  11.124  20.098   0.741  0.1319  0.1916  0.1452
    1W        W55256  16.104   9.963   8.503 -0.1865  0.1011  0.2324
    1W        W55257  21.165  30.286   2.517 -0.1973  0.1093  0.0822
    1W        W55258   2.855  17.749   8.064 -0.1915 -0.2300  0.1016
    1W        W55259  22.510  18.331   0.227  0.1392  0.1626  0.1360
    1W        W55260  16.698  17.873   5.768 -0.2675 -0.0017 -0.0530
    1W        W55261   9.670   5.085   6.916 -0.2183  0.0614 -0.2956
    1W        W55262   9.355   8.399   1.235 -0.0572  0.0218  0.3118
    1W        W55263  25.371  15.629   0.759 -0.0207 -0.1509 -0.0379
    1W        W55264   9.118  30.101   8.852  0.2867  0.2199 -0.2553
    1W        W55265   3.180   9.239   9.249 -0.1148  0.0385  0.1617
    1W        W55266  12.214   7.467   7.876  0.1113 -0.0474 -0.1159
    1W        W55267  11.400   1.587   1.924 -0.0956  0.3696 -0.0346
    1W        W55268  18.886   7.896   1.407 -0.1465 -0.0593 -0.1572
    1W        W55269  16.843  18.787   6.271 -0.0316 -0.1882  0.3099
    1W        W55270  10.961  26.625   1.288 -0.0867 -0.2601 -0.0794
    1W        W55271   8.065   3.704   8.750 -0.0524 -0.0635  0.1954
    1W        W55272  29.564  24.043   2.957 -0.1295 -0.0482 -0.0618
    1W        W55273  22.841   8.804   1.610  0.0445 -0.1049  0.0892
    1W        W55274   5.380   8.779   8.691 -0.3935  0.1625  0.2300
    1W        W55275  12.553  20.941   6.597 -0.1812  0.0349 -0.0049
    1W        W55276  15.575  22.432   9.201  0.1074  0.1385 -0.0668
    1W        W55277   0.543  12.200   7.113  0.0885 -0.1951  0.2724
    1W        W55278   2.334   1.985   2.108 -0.3078 -0.1991  0.0056
    1W        W55279   7.555  22.370   9.138 -0.0098  0.0670 -0.3146
    1W        W55280  23.583  25.425   2.936 -0.1446 -0.0417 -0.1912
    1W        W55281   0.592   2.354   2.864 -0.0072  0.0774  0.3695
    1W        W55282  11.841  28.200   7.919  0.2336  0.0261  0.1270
    1W        W55283  22.397  19.203   0.362  0.0687 -0.0699  0.0496
    1W        W55284   2.837  29.477   8.610 -0.0030  0.0186  0.0216
    1W        W55285   7.786  11.549   7.957 -0.0583 -0.1274 -0.2655
    1W        W55286   9.183  27.284   1.359  0.0139  0.0836 -0.0266
    1W        W55287   9.508   0.085   1.316  0.1756  0.0157 -0.0998
    1W        W55288  22.467  14.907   6.695  0.0685  0.0864  0.0794
    1W        W55289  18.475  23.869   2.834  0.0457  0.0167 -0.1879
    1W        W55290  28.738  22.416   7.377 -0.2571  0.2436  0.1073
    1W        W55291  11.697  15.589   2.965 -0.0822  0.1312  0.0837
    1W        W55292   4.354   8.592   1.669 -0.1540 -0.1982  0.0403
    1W        W55293  28.853  23.336   7.095 -0.1420  0.0485 -0.2239
    1W        W55294   3.347   7.827   8.057  0.2731 -0.1135  0.0467
    1W        W55295  12.357   1.562   1.923 -0.1239 -0.0133  0.1723
    1W        W55296   8.234  23.859   1.015 -0.1685  0.0750 -0.1606
    1W        W55297  21.800  28.192   8.945  0.3410 -0.1143 -0.0216
    1W        W55298  24.281   0.157   1.880 -0.0402  0.0316 -0.0322
    1W        W55299   8.341  19.994   8.400 -0.0719 -0.1082  0.1818
    1W        W55300  16.904  19.570   0.485 -0.1783 -0.1067 -0.2603
    1W        W55301   8.888  25.894   1.294 -0.0434 -0.1138 -0.1784
    1W        W55302  17.294  25.090   7.336 -0.0740  0.3503  0.3525
    1W        W55303   3.251  19.707   0.887  0.2449  0.3174  0.1019
    1W        W55304   5.977  26.318   3.361 -0.4235 -0.2061  0.0385
    1W        W55305   6.300  29.630   0.839  0.1054  0.1494  0.0865
    1W        W55306  24.271  27.197   7.810  0.2239 -0.0727  0.1324
    1W        W55307  18.087   9.279   9.202  0.2650  0.0455 -0.2457
    1W        W55308   0.743   6.559   0.772  0.0961  0.1443 -0.1166
    1W        W55309  10.780  24.207   0.205 -0.1492  0.0783  0.1388
    1W        W55310  21.124   3.539   0.450 -0.0610 -0.2269 -0.4373
    1W        W55311  26.235  24.822   2.153 -0.1111 -0.0050  0.1282
    1W        W55312   0.008  14.841   1.096  0.0976 -0.1656  0.0628
    1W        W55313  22.437   0.092   2.370  0.1523  0.0274 -0.1212
    1W        W55314  23.121  29.091   1.247  0.0118  0.2529 -0.0761
    1W        W55315  21.512  26.276   8.073  0.0016  0.5432 -0.0948
    1W        W55316  28.826  20.253   1.211  0.0603  0.2748 -0.0802
    1W        W55317  11.387   7.016   1.227  0.1308 -0.4509  0.1502
    1W        W55318  27.677  14.015   1.716  0.1578  0.0673  0.0814
    1W        W55319   0.725   5.810   2.795  0.2976  0.2090  0.1324
    1W        W55320  24.556  29.264   2.321  0.0145  0.1737  0.0473
    1W        W55321  19.000   7.174   8.532 -0.0652 -0.0780 -0.1496
    1W        W55322  25.774  10.738   1.537 -0.1163 -0.1406  0.0983
    1W        W55323  18.140  19.541   7.586  0.1256  0.1644 -0.4161
    1W        W55324   0.431   6.734   7.220  0.0080 -0.1269 -0.3109
    1W        W55325  20.083  14.793   6.523 -0.1846  0.1045  0.1528
    1W        W55326   4.109  19.545   6.398 -0.2193 -0.1499  0.0181
    1W        W55327  18.772  13.902   7.969  0.0872 -0.1610 -0.0032
    1W        W55328   3.660  23.474   9.053 -0.0748  0.1225  0.0778
    1W        W55329  27.643  16.892   6.697 -0.0553  0.1357 -0.0241
    1W        W55330   7.409  21.894   1.536 -0.1506  0.1270  0.0824
    1W        W55331  20.726  26.544   1.389 -0.0266 -0.0934 -0.2197
    1W        W55332  29.251  18.493   6.310  0.0616 -0.0673  0.2655
    1W        W55333  23.750   9.119   2.712  0.1966  0.1102  0.1807
    1W        W55334  10.526  15.042   0.833  0.1027 -0.3858 -0.0535
    1W        W55335  27.629  27.099   2.677  0.0178  0.0181 -0.1443
    1W        W55336  16.655  11.996   7.862 -0.1061  0.0117 -0.1897
    1W        W55337   0.592  11.199   1.647 -0.0730  0.1203 -0.2047
    1W        W55338  15.860   7.433   0.914 -0.1662  0.0308 -0.3051
    1W        W55339  15.264  15.202   0.610  0.1787  0.1413  0.0632
    1W        W55340  11.040   2.622   7.173  0.0881  0.0738  0.0049
    1W        W55341   2.131  24.730   2.752  0.1997  0.0669 -0.0491
    1W        W55342   7.911  27.981   6.363 -0.0688  0.1795 -0.0357
    1W        W55343  22.883  29.669   1.731  0.0878  0.0706  0.0576
    1W        W55344  11.362   0.339   3.120  0.1781  0.2065  0.0351
    1W        W55345  13.722  20.334   1.024 -0.1056  0.3139 -0.1006
    1W        W55346  11.262  14.771   2.476  0.0157 -0.0729  0.1759
    1W        W55347  29.724  12.950   6.917 -0.1345  0.1638  0.0864
    1W        W55348   0.363   5.059   1.944 -0.3449 -0.3193 -0.2251
    1W        W55349  27.000   7.219   3.287 -0.0503  0.0181 -0.0639
    1W        W55350  23.761  14.796   7.664 -0.1787  0.1448  0.0788
    1W        W55351  26.982   0.214   0.881  0.0866 -0.1871  0.3193
    1W        W55352  22.609   9.724   8.058  0.1064  0.0336 -0.3032
    1W        W55353   2.454  25.424   7.934  0.2454 -0.0488  0.1653
    1W        W55354   9.835  14.009   0.554  0.0644  0.3243  0.1882
    1W        W55355  12.199  18.269   6.660  0.4014  0.1844  0.2813
    1W        W55356  11.546  24.696   5.947  0.1369 -0.0620 -0.2824
    1W        W55357  20.057  29.338   0.367  0.2964 -0.1154  0.1467
    1W        W55358   2.503   7.065   1.347  0.0921  0.0750  0.2759
    1W        W55359  11.532   5.411   2.958 -0.0133 -0.1696 -0.1106
    1W        W55360  14.154  12.326   0.046  0.0377  0.0606  0.0717
    1W        W55361  21.453  14.450   1.648  0.0534 -0.1960 -0.0745
    1W        W55362  20.695   1.069   1.014 -0.0782 -0.3780  0.1647
    1W        W55363  19.419   1.827   2.428 -0.0152 -0.2315 -0.2365
    1W        W55364  20.300  23.101   7.873 -0.0067 -0.2460  0.0161
    1W        W55365   0.449  27.221   7.808  0.0201 -0.0350 -0.2168
    1W        W55366  26.300   2.611   2.295 -0.2677 -0.1607 -0.2144
    1W        W55367  18.098  15.920   6.963  0.0453  0.1288  0.0541
    1W        W55368   3.962  12.226   0.386  0.0521 -0.0584  0.2298
    1W        W55369  30.168  21.974   8.091  0.2709 -0.0507  0.1748
    1W        W55370   7.237  14.908   0.590  0.1063 -0.1937  0.0428
    1W        W55371   8.653  11.280   0.971 -0.2319 -0.1754  0.2680
    1W        W55372  10.090  17.282   7.500 -0.0613  0.0370 -0.0873
    1W        W55373  13.160   3.381   0.736 -0.0878  0.1172  0.2178
    1W        W55374  27.446   5.420   3.856 -0.0505 -0.0341 -0.0952
    1W        W55375  13.906  10.230   8.950 -0.0439  0.1219  0.0772
    1W        W55376  14.291   3.974   0.169  0.0149  0.2192 -0.0634
    1W        W55377  19.175   4.217   6.951 -0.3625 -0.0323 -0.1347
    1W        W55378  22.102   5.914   7.000  0.0437 -0.0148  0.1454
    1W        W55379  22.259  19.973   7.347  0.0393  0.0057 -0.5466
    1W        W55380   9.468  22.730   7.111  0.0478 -0.1361 -0.2372
    1W        W55381  19.847  24.689   6.412  0.1637 -0.0559 -0.0803
    1W        W55382  11.207  15.301   7.773  0.2012 -0.2011  0.0670
    1W        W55383   1.749  28.886   1.183  0.0151 -0.1283  0.0900
    1W        W55384  17.276  12.456   2.057 -0.0598 -0.1162 -0.0312
    1W        W55385  27.013  13.537   1.066 -0.0946 -0.2601 -0.1424
    1W        W55386  26.976   9.348   0.051 -0.0190 -0.0818  0.1094
    1W        W55387   8.272  19.548   1.032  0.0569 -0.0965  0.2104
    1W        W55388  29.015   8.658   0.491  0.1197  0.0924  0.2133
    1W        W55389  18.811  25.873   9.068 -0.1478 -0.1599  0.2986
    1W        W55390  17.756  13.291   1.879  0.2316 -0.0154 -0.1046
    1W        W55391  18.325  11.034   2.664  0.3117 -0.0989  0.2032
    1W        W55392  14.000   4.380   0.339  0.3173 -0.3012  0.1569
    1W        W55393  26.517  24.639   5.861 -0.2285 -0.0279  0.3065
    1W        W55394   1.095  24.433   0.822  0.3645 -0.3417  0.0890
    1W        W55395   4.381  29.432   7.362 -0.0595 -0.1534 -0.0793
    1W        W55396  17.172  12.677   7.864  0.1007  0.1601 -0.1672
    1W        W55397  11.673  20.914   1.993  0.0459 -0.0470  0.1157
    1W        W55398   2.025  15.698   7.130 -0.0780  0.3522  0.2383
    1W        W55399  17.475  26.395   8.720  0.1461 -0.0815  0.0628
    1W        W55400  19.688  14.509   1.049 -0.0507  0.0016  0.0417
    1W        W55401   1.378  25.822   8.563 -0.1351 -0.1523  0.0787
    1W        W55402  18.078  12.826   1.683  0.0157  0.1176 -0.2691
    1W        W55403  21.455  24.906   1.517  0.1301 -0.2316  0.1827
    1W        W55404  13.604  19.575   2.178  0.0318  0.1041 -0.4437
    1W        W55405   9.457  23.163   1.692  0.4116  0.1306  0.0161
    1W        W55406  10.111   2.139   0.753  0.0995 -0.0089 -0.0753
    1W        W55407  13.510  11.139   0.237  0.1632 -0.1852  0.1405
    1W        W55408  18.932   1.715   0.553 -0.1881 -0.3084 -0.0508
    1W        W55409  22.052  20.884   1.554 -0.0638  0.0415 -0.4399
    1W        W55410  16.379  23.264   7.851 -0.2676 -0.1329  0.0682
    1W        W55411  14.231  19.788   0.343 -0.0048  0.1420  0.0823
    1W        W55412   5.801  28.005   0.997 -0.3203 -0.1061 -0.2446
    1W        W55413   7.495   1.450   8.458 -0.0839 -0.1525  0.0552
    1W        W55414  23.840  11.445   1.308  0.1545  0.2233  0.1212
    1W        W55415   3.112   1.730   8.883 -0.2406 -0.0691  0.2776
    1W        W55416  11.235   2.017   1.503 -0.2598 -0.1349 -0.0019
    1W        W55417   9.875  18.538   2.486  0.1555  0.1239 -0.0376
    1W        W55418  21.427   4.872   2.696  0.0226  0.1579 -0.0777
    1W        W55419   4.773   7.865   8.266  0.1256 -0.0468 -0.0832
    1W        W55420   3.784  14.647   1.369 -0.0458  0.0826 -0.1200
    1W        W55421  13.465  28.854   1.103  0.4231 -0.0634  0.1545
    1W        W55422  21.369   2.022   0.068  0.1830 -0.1896 -0.0438
    1W        W55423   5.190  29.032   3.027  0.2036  0.0678  0.0693
    1W        W55424  20.244   2.220   6.860  0.1885  0.1291  0.1338
    1W        W55425  19.645  10.048   1.141  0.1744 -0.0037  0.0990
    1W        W55426  23.742   5.339   1.645  0.0171  0.0889  0.0731
    1W        W55427  20.881   7.257   6.689  0.3058  0.0673  0.0404
    1W        W55428   6.241   6.360   8.289 -0.2162  0.2279 -0.1652
    1W        W55429  28.175   6.247   1.576  0.0385  0.0257 -0.2172
    1W        W55430  22.944  13.598   7.361 -0.2770 -0.0875  0.2458
    1W        W55431   6.220   9.791   1.820  0.3950  0.0143  0.1120
    1W        W55432  16.663  14.323   8.404 -0.0326 -0.3028 -0.0753
    1W        W55433  23.221   8.114   9.203 -0.3049  0.0518  0.2360
    1W        W55434   8.114  17.222   7.997 -0.1761  0.3969 -0.1067
    1W        W55435  27.042   1.994   7.501 -0.1462  0.1670  0.1859
    1W        W55436  17.930  11.219   8.925 -0.2306  0.0019  0.0690
    1W        W55437   3.110  24.067   6.679 -0.0509 -0.0037 -0.0719
    1W        W55438  25.957   3.743   8.295 -0.2449 -0.0070 -0.3262
    1W        W55439   0.515   4.197   7.982 -0.0396  0.0407  0.0449
    1W        W55440  24.998  20.160   1.016  0.0090 -0.3973  0.1148
    1W        W55441   0.185   6.590   8.803  0.1469  0.0954  0.0899
    1W        W55442  12.013  27.997   2.658 -0.3397  0.2466  0.3526
    1W        W55443  27.538   2.842   9.122  0.4008  0.2419  0.0948
    1W        W55444  29.335  28.084   2.579  0.2152 -0.0863 -0.2218
    1W        W55445  23.660  28.055   2.701 -0.2084  0.0981  0.4227
    1W        W55446   1.792  26.286   1.437  0.1069  0.0207  0.0625
    1W        W55447   1.816  12.296   7.003 -0.1418 -0.0154 -0.0545
    1W        W55448  22.435  22.467   2.351  0.1882 -0.0718 -0.2321
    1W        W55449  16.402   6.348   6.097 -0.0118 -0.2502 -0.0340
    1W        W55450  23.879   0.255   2.681  0.2637  0.2871  0.1377
    1W        W55451  28.289  29.541   1.288 -0.1273  0.2242 -0.2435
    1W        W55452  19.254  19.066   0.595 -0.1001 -0.3864  0.0844
    1W        W55453   2.770   8.969   0.731 -0.1895  0.0109  0.1065
    1W        W55454  17.601  13.985   1.340 -0.0419 -0.2699 -0.1027
    1W        W55455   0.765  23.685   8.878 -0.3710  0.1918 -0.0917
    1W        W55456  26.413   0.622   1.209  0.2352  0.3248 -0.2580
    1W        W55457   2.939  19.262   8.005  0.1948 -0.1463  0.1538
    1W        W55458  10.135  13.012   9.201 -0.0704  0.0784 -0.0167
    1W        W55459   1.194   4.070   3.098  0.0568  0.1838 -0.0378
    1W        W55460  11.858  26.573   1.651 -0.1986 -0.3402  0.1248
    1W        W55461  28.935  28.077   1.943  0.0985 -0.0974  0.0122
    1W        W55462   1.384  19.234   6.854  0.2642 -0.2259  0.2796
    1W        W55463  22.371   8.759   0.481 -0.0599 -0.2488  0.0198
    1W        W55464  13.753   1.347   0.257  0.1878  0.2153 -0.3058
    1W        W55465  19.947  24.362   0.185 -0.0621  0.1012  0.3834
    1W        W55466  27.266  17.877   7.109 -0.2513 -0.0349 -0.3932
    1W        W55467   2.752  12.366   6.924 -0.1283 -0.0915 -0.0698
    1W        W55468  22.300  21.372   1.621  0.1107 -0.2882 -0.0234
    1W        W55469  15.607   5.503   2.485 -0.0875 -0.1645 -0.0390
    1W        W55470   9.477  12.337   0.665  0.1217  0.1162  0.0760
    1W        W55471  11.586  10.754   1.874  0.1332  0.1062 -0.0000
    1W        W55472  17.539  11.363   2.233  0.0171 -0.5034  0.0303
    1W        W55473  20.034   1.680   2.122 -0.3683  0.2413  0.0409
    1W        W55474  14.660  13.126   9.205  0.2647 -0.0840  0.0703
    1W        W55475  26.231  16.871   6.280  0.3029  0.0725 -0.0134
    1W        W55476   9.223  20.578   6.995 -0.0806  0.1229  0.0340
    1W        W55477  10.969  19.897   8.651  0.1915 -0.2536 -0.1304
    1W        W55478   4.228  28.315   1.384  0.4592 -0.0699  0.1300
    1W        W55479   7.747  20.971   1.911  0.0225  0.0774  0.0665
    1W        W55480  28.101  19.191   6.690 -0.2438 -0.0523  0.4112
    1W        W55481  26.622  18.944   8.545  0.0706  0.0337 -0.2021
    1W        W55482   6.616   9.956   2.142 -0.2531  0.2399  0.2057
    1W        W55483   6.890  26.320   8.143 -0.2890 -0.1622 -0.0180
    1W        W55484  25.742  16.036   2.172  0.0968  0.0121 -0.1132
    1W        W55485  25.584   2.283   2.560 -0.1744  0.0576  0.4172
    1W        W55486  22.852  15.676   0.147 -0.1474  0.0399 -0.1681
    1W        W55487  30.275  28.736   8.130  0.0166  0.4692  0.0013
    1W        W55488  17.861  27.117   2.767  0.0955  0.2891 -0.0860
    1W        W55489   7.429  15.649   7.232  0.1046 -0.3107 -0.0752
    1W        W55490  22.246   1.877   2.227 -0.1406 -0.1264  0.2857
    1W        W55491  15.000  12.370   0.281  0.1466 -0.0834  0.1634
    1W        W55492   1.350  17.995   0.363  0.1801 -0.5367  0.0029
    1W        W55493  12.286  28.533   0.262  0.0458 -0.1815 -0.1579
    1W        W55494   4.834   5.916   2.986  0.1106 -0.0584  0.1033
    1W        W55495   1.407   4.087   0.266  0.0718 -0.2775 -0.2854
    1W        W55496   2.104  16.507   6.997 -0.0464  0.1088  0.2423
    1W        W55497  20.098  10.312   1.208  0.0841  0.5514 -0.3140
    1W        W55498  15.826  10.558   8.728  0.3687 -0.1038  0.0872
    1W        W55499  12.068   2.982   7.338  0.0014  0.2877  0.1756
    1W        W55500  19.831  10.234   0.555 -0.1118 -0.3431  0.1143
    1W        W55501   2.040   4.283   0.178 -0.0543 -0.0835 -0.0234
    1W        W55502   7.576  13.616   9.236 -0.1913  0.1467 -0.1993
    1W        W55503  11.695  13.335   0.851  0.1570 -0.2723 -0.1460
    1W        W55504   9.633  27.978   3.411 -0.1889 -0.3748 -0.1489
    1W        W55505  14.466   2.301   9.229  0.0513  0.0802  0.0412
    1W        W55506  12.698  15.508   0.150  0.0237  0.1646 -0.0554
    1W        W55507  10.339   5.776   1.702  0.3703 -0.0468 -0.2416
    1W        W55508   9.750  16.648   8.870  0.3349 -0.1764 -0.3281
    1W        W55509  29.976  29.495   0.006  0.0933  0.0856 -0.0058
    1W        W55510  12.658   5.386   6.400  0.1859 -0.0478  0.0380
    1W        W55511  18.013   8.688   6.343 -0.3732  0.3703  0.0258
    1W        W55512  22.578   7.526   6.846  0.1464 -0.2841  0.1851
    1W        W55513  28.814  24.907   2.696 -0.1429  0.1515  0.1660
    1W        W55514   2.751  24.752   3.132 -0.0160  0.7107 -0.0517
    1W        W55515   4.031  13.258   8.654 -0.1679 -0.0051 -0.4679
    1W        W55516   5.365  22.762   8.619  0.0289 -0.0117 -0.1502
    1W        W55517  12.036  14.965   7.055  0.0207 -0.1499  0.0597
    1W        W55518   6.495   8.372   9.006 -0.0349  0.1505 -0.0571
    1W        W55519  15.177   6.977   7.560  0.1946 -0.0852 -0.4093
    1W        W55520  19.650  21.844   5.836 -0.3250  0.2953  0.2341
    1W        W55521  15.895  23.597   7.064  0.0784  0.0798 -0.1449
    1W        W55522  18.241  29.081   7.901 -0.0099 -0.0832  0.1886
    1W        W55523  29.993   1.291   2.539 -0.0364 -0.1758  0.2637
    1W        W55524   5.271   8.249   1.223 -0.0697 -0.0990 -0.0860
    1W        W55525  18.492  28.467   8.353  0.0146 -0.1612  0.1790
    1W        W55526  28.432   7.593   1.081 -0.6116  0.1037  0.2378
    1W        W55527  15.187   4.628   7.817  0.1993 -0.1560  0.1525
    1W        W55528  25.444  30.108   8.514 -0.2491  0.0500 -0.1564
    1W        W55529  12.540   0.559   3.246  0.1118 -0.1539 -0.1235
    1W        W55530   7.375  22.503   6.624 -0.1067 -0.0215  0.4031
    1W        W55531  23.086  18.073   8.211 -0.0572  0.2841 -0.0525
    1W        W55532  11.111  24.888   7.078  0.4060 -0.2318 -0.0117
    1W        W55533  15.765   5.303   7.770 -0.1260  0.2728  0.0410
    1W        W55534  30.150   6.304   6.738 -0.0556 -0.1649  0.0847
    1W        W55535   0.888  22.702   8.671  0.3871  0.0590  0.0239
    1W        W55536  17.334  16.187   1.854 -0.4335 -0.3255  0.2559
    1W        W55537  16.272   9.314   7.027  0.1132  0.0315 -0.1573
    1W        W55538   7.865  22.009   7.830 -0.2038  0.1650  0.1936
    1W        W55539  29.652  28.726   3.560 -0.2818 -0.3443  0.0431
    1W        W55540  28.733  16.719   8.619 -0.2561  0.1164  0.2036
    1W        W55541  18.781   6.480   8.405  0.2016 -0.3686 -0.1820
    1W        W55542  30.287  28.565   0.958  0.0834 -0.1794 -0.1855
    1W        W55543  13.231  15.992   7.571  0.0698  0.2210 -0.2660
    1W        W55544   5.440  21.058   6.377 -0.1680  0.1043 -0.0374
    1W        W55545  11.737  20.717   5.534  0.0494  0.1673 -0.1953
    1W        W55546  14.184   0.662   2.718  0.2944 -0.3324  0.2512
    1W        W55547   1.170   7.414   9.167  0.1135 -0.2170 -0.2173
    1W        W55548  19.267   4.790   6.014  0.1803 -0.1340  0.1342
    1W        W55549   8.244   5.486   1.068  0.0616  0.0142  0.0777
    1W        W55550   1.970  13.122   7.495 -0.1142  0.2309  0.0012
    1W        W55551   4.830  29.940   8.224  0.1363  0.2678 -0.2027
    1W        W55552  26.384  21.427   7.282  0.2021  0.0714  0.3263
    1W        W55553   8.096  14.176   8.074 -0.2125 -0.0574  0.1199
    1W        W55554   0.698   6.069   0.410 -0.0620  0.1966 -0.1649
    1W        W55555  21.176  22.126   0.312 -0.0431  0.0199  0.2736
    1W        W55556  21.366  28.168   6.242 -0.0330 -0.3486 -0.0563
    1W        W55557  14.615   4.400   0.145 -0.1542  0.0890  0.2862
    1W        W55558   8.702  25.824   0.466  0.0721  0.1165 -0.0671
    1W        W55559   0.294   6.443   0.360 -0.0671  0.3045  0.2288
    1W        W55560   5.539  17.231   1.822  0.1566 -0.2617 -0.1254
    1W        W55561   7.407  14.507   9.010 -0.0458  0.2121 -0.2071
    1W        W55562  15.524   5.697   6.803  0.1803  0.0249  0.0171
    1W        W55563  18.179  28.358   2.857 -0.0854 -0.0477  0.0806
    1W        W55564   7.994   3.043   1.406 -0.0760 -0.0276  0.0403
    1W        W55565  29.205  23.000   8.921 -0.1457  0.1839  0.1544
    1W        W55566  10.358  24.557   8.460 -0.2247 -0.1144  0.2625
    1W        W55567  15.574  17.256   6.556  0.1252  0.1705  0.1022
    1W        W55568  17.872  18.102   6.725 -0.0754 -0.1551  0.2175
    1W        W55569   1.315   0.028   8.360  0.2257  0.1092 -0.2283
    1W        W55570   0.009  19.736   7.236 -0.1147  0.0275 -0.0441
    1W        W55571  22.917  11.074   7.547 -0.0303 -0.0921 -0.0850
    1W        W55572  24.178  12.788   1.865  0.2423  0.0674 -0.1698
    1W        W55573   6.406  22.401   8.599 -0.0999  0.0535  0.0126
    1W        W55574  26.530  13.361   7.788  0.0480  0.2325 -0.0731
    1W        W55575  13.270   7.537   8.588  0.0198 -0.4355 -0.0078
    1W        W55576  22.242  20.176   7.825  0.0967 -0.1979 -0.0266
    1W        W55577   8.836  26.252   0.890 -0.1668  0.0481 -0.1682
    1W        W55578   2.460  25.261   6.695 -0.0200 -0.1657  0.1765
    1W        W55579  28.515   6.252   7.614 -0.1200  0.2764 -0.0250
    1W        W55580   8.356  16.791   2.583 -0.3717  0.1606 -0.0402
    1W        W55581   8.682  26.521   8.485  0.0797 -0.0089  0.1731
    1W        W55582  23.395  25.677   7.549  0.0724 -0.1698 -0.2792
    1W        W55583  25.949  23.259   8.817 -0.2243  0.1746 -0.1416
    1W        W55584  28.604   9.234   1.081 -0.0242  0.0181  0.0433
    1W        W55585  29.330  23.198   0.956 -0.1166 -0.0825  0.2310
    1W        W55586   9.683   8.127   8.295 -0.1109 -0.0985  0.1759
    1W        W55587  12.292   4.907   0.397 -0.1096 -0.0129  0.3571
    1W        W55588  21.548   3.845   7.642  0.1691  0.0500 -0.0415
    1W        W55589  13.524  13.260   3.643 -0.1893  0.0220  0.0458
    1W        W55590  25.273  18.887   6.898 -0.1441  0.1051 -0.0619
    1W        W55591  28.919  11.061   7.569 -0.1171  0.1509 -0.1682
    1W        W55592  13.580   6.453   6.911 -0.1108  0.4171  0.0219
    1W        W55593  27.526   0.828   1.745  0.3473 -0.0884 -0.5122
    1W        W55594  29.516  20.066   0.632  0.0139 -0.0193 -0.1101
    1W        W55595  13.468  16.526   2.008  0.1180  0.0772  0.1791
    1W        W55596  26.747  20.895   7.314 -0.0510  0.0014  0.1953
    1W        W55597   9.659  10.931   8.221 -0.1624  0.3267  0.0246
    1W        W55598  10.135   5.705   1.187 -0.0314  0.2148 -0.2039
    1W        W55599   6.521  14.363   6.531 -0.0127  0.3384 -0.1734
    1W        W55600  22.880  22.514   7.962  0.0590  0.1617 -0.0925
    1W        W55601  22.911   1.674   8.878  0.3420 -0.0048 -0.0775
    1W        W55602   8.479  22.680   7.633  0.0317  0.0735  0.2080
    1W        W55603  10.809   8.873   8.290  0.0041  0.0943 -0.3882
    1W        W55604  22.877   1.257   0.920 -0.1343  0.1367 -0.0087
    1W        W55605  15.300  21.823   9.116  0.1470 -0.0031 -0.2200
    1W        W55606  22.474  16.202   8.142  0.2072  0.1202 -0.4084
    1W        W55607  18.827   5.676   7.391  0.0481  0.4388 -0.0765
    1W        W55608  29.838  21.063   0.527  0.0442  0.1200 -0.1242
    1W        W55609   5.799  10.541   9.135  0.0226  0.2205 -0.1065
    1W        W55610   9.864   8.523   7.614  0.0939 -0.2071  0.0124
    1W        W55611  27.463   7.745   0.270 -0.1958 -0.0435 -0.1253
    1W        W55612  14.384  18.997   5.627  0.0585 -0.0864  0.0455
    1W        W55613  14.308  20.323   5.730 -0.0026 -0.0267  0.1195
    1W        W55614  21.643  21.054   8.099  0.1194  0.2038  0.2103
    1W        W55615   0.731   6.708   2.237  0.0662 -0.0608  0.2186
    1W        W55616  15.995  11.180   2.436 -0.2789  0.1307 -0.0715
    1W        W55617  18.540  12.538   7.846 -0.0279  0.2136  0.2307
    1W        W55618   6.146  22.932   6.730 -0.4293 -0.2807 -0.0270
    1W        W55619   0.769  25.443   8.903  0.0614 -0.1829  0.1937
    1W        W55620   1.088  28.402   2.389 -0.0207  0.0815  0.1348
    1W        W55621  24.317  10.488   1.369 -0.0603 -0.1129 -0.1638
    1W        W55622   3.278   0.561   9.234  0.1948  0.0729  0.3918
    1W        W55623  11.230  28.726   8.461  0.2295  0.1785  0.0387
    1W        W55624  22.080  10.352   7.910 -0.2522 -0.0736  0.1343
    1W        W55625   9.464   4.068   9.184  0.0729  0.0362 -0.1822
    1W        W55626  14.669  27.055   0.328  0.0557 -0.0901 -0.0287
    1W        W55627  13.670  30.115   0.201  0.0938  0.4423  0.1567
    1W        W55628  11.336   1.948   8.838  0.3990  0.0712  0.1012
    1W        W55629  17.018  29.177   7.791 -0.2815 -0.0081 -0.1351
    1W        W55630  10.523  22.064   5.873  0.0774  0.2040  0.3412
    1W        W55631  13.746  21.551   1.924 -0.0708 -0.3530 -0.1427
    1W        W55632  19.275  25.582   8.658 -0.1854  0.2285 -0.0158
    1W        W55633   8.649   4.094   1.269 -0.0703 -0.0132 -0.0160
    1W        W55634  28.158   7.204   9.081  0.0728  0.0621  0.1204
    1W        W55635   4.447  20.856   8.502 -0.1025 -0.1504  0.1065
    1W        W55636  18.936  11.971   1.461 -0.0080 -0.1003  0.0203
    1W        W55637  26.630  29.971   7.233 -0.1459 -0.0260 -0.1876
    1W        W55638  18.932  14.346   7.566  0.0080 -0.0598  0.0747
    1W        W55639  29.774   6.569   6.975  0.1109  0.1875 -0.1559
    1W        W55640  12.868   0.697   7.421 -0.0367 -0.0250 -0.2395
    1W        W55641  12.569   9.661   1.414  0.1702  0.0175 -0.0296
    1W        W55642   0.591  12.506   1.493  0.1214  0.0653 -0.0502
    1W        W55643   1.521  19.029   7.362 -0.1297 -0.2265 -0.0089
    1W        W55644   5.878   5.771   6.492  0.0335  0.2828  0.0414
    1W        W55645  27.714  11.918   0.935  0.0527  0.1984  0.0705
    1W        W55646  10.272   0.537   8.128  0.4410  0.0251  0.4301
    1W        W55647   2.842  11.542   8.405  0.1155  0.0147 -0.1800
    1W        W55648  30.004  21.145   8.642 -0.2125 -0.0465  0.2535
    1W        W55649   0.227   0.826   1.858  0.1778 -0.4692 -0.2060
    1W        W55650  26.032  25.681   6.756  0.1491 -0.1318 -0.0967
    1W        W55651  25.320   4.248   3.237  0.0146  0.0333 -0.2929
    1W        W55652  15.121   6.852   1.662 -0.1704  0.0892 -0.0256
    1W        W55653  29.330  26.446   8.642  0.1348 -0.0164 -0.2549
    1W        W55654   2.879  28.277   0.151  0.0088  0.3089 -0.1829
    1W        W55655   2.891  11.117   7.983 -0.4048  0.3314 -0.0292
    1W        W55656   8.675  13.201   8.811  0.1956  0.1041 -0.0445
    1W        W55657  15.008  23.357   8.741 -0.0797 -0.3519 -0.0951
    1W        W55658   9.261  29.297   1.739  0.0621  0.3202 -0.0917
    1W        W55659   2.438  12.384   7.501  0.2851 -0.2429 -0.0562
    1W        W55660   8.200   6.299   9.080  0.0189 -0.1790 -0.3881
    1W        W55661  13.766  10.109   8.462 -0.1191  0.0640 -0.0126
    1W        W55662  29.623  27.398   2.178  0.0833 -0.0552 -0.2606
    1W        W55663  19.945  28.234   0.600 -0.0745  0.1565  0.1612
    1W        W55664  21.707   1.988   2.211 -0.2421  0.0256  0.0232
    1W        W55665   4.526  20.480   6.746 -0.1065  0.2313 -0.2427
    1W        W55666  16.477   1.325   3.102 -0.2904 -0.2153  0.0875
    1W        W55667  12.281  20.388   8.970 -0.0204  0.3632  0.2021
    1W        W55668   8.045   5.983   0.499 -0.0881 -0.1554  0.2220
    1W        W55669   3.883   3.951   6.571 -0.0018 -0.4595  0.0131
    1W        W55670  15.508  23.434   0.704  0.0576 -0.1361  0.1864
    1W        W55671  19.388   0.696   1.705 -0.0072  0.0821  0.2360
    1W        W55672  18.280   8.678   8.901  0.1901 -0.1309 -0.0280
    1W        W55673  20.506   5.158   5.977 -0.0030  0.0336 -0.3135
    1W        W55674  21.920  28.209   1.476 -0.1136  0.3952  0.3707
    1W        W55675  11.475  19.099   8.348 -0.0792 -0.1744 -0.1266
    1W        W55676  26.875   3.916   3.078  0.0666 -0.0131 -0.0553
    1W        W55677  14.244  12.878   0.239 -0.1703  0.2144  0.3660
    1W        W55678  12.806  12.493   1.267  0.0466  0.1131  0.1082
    1W        W55679   8.128   9.333   8.776  0.2832 -0.1637 -0.0892
    1W        W55680  19.913  24.234   6.569  0.3293 -0.1454  0.0318
    1W        W55681  18.957  29.672   1.206 -0.0130 -0.2772 -0.1073
    1W        W55682  14.643  28.994   9.075  0.0620  0.5890  0.1687
    1W        W55683  12.503  16.721   6.025  0.1245  0.0435  0.2205
    1W        W55684  21.997   2.717   2.781  0.2614 -0.0226  0.0096
    1W        W55685  29.188  25.000   8.453 -0.3870 -0.1066 -0.0229
    1W        W55686  10.485  17.855   8.923 -0.1362 -0.2917 -0.0753
    1W        W55687  13.117  14.641   0.156  0.2950 -0.2897  0.0284
    1W        W55688  30.020   9.339   2.247  0.1073 -0.3142  0.0645
    1W        W55689   5.263  12.233   9.248  0.4523  0.0408  0.0732
    1W        W55690   6.616   0.936   0.113 -0.1236 -0.1488 -0.0843
    1W        W55691  14.343  11.867   9.121  0.0842 -0.1849 -0.2097
    1W        W55692  10.688  23.053   6.497  0.1729 -0.0899  0.0167
    1W        W55693  23.367  11.960   0.813  0.1214 -0.3588 -0.1312
    1W        W55694  11.131  23.805   2.416  0.2312  0.2934 -0.3560
    1W        W55695  21.121   8.689   8.950 -0.1902 -0.0587 -0.2076
    1W        W55696  15.433  17.396   1.983  0.0114  0.1187  0.0558
    1W        W55697   3.023  21.416   0.168  0.1178 -0.0635 -0.3735
    1W        W55698  19.881  13.206   8.802  0.1054 -0.1345 -0.1225
    1W        W55699   5.224  10.499   0.916 -0.2954  0.1379 -0.1027
    1W        W55700  17.785  21.882   8.095  0.0325  0.0827 -0.0951
    1W        W55701  13.497  27.069   1.907 -0.1025 -0.0137 -0.0041
    1W        W55702  16.876  18.898   8.592  0.0375 -0.0341  0.1451
    1W        W55703  23.497  17.741   8.033 -0.0131 -0.0152  0.2265
    1W        W55704   8.456  23.033   1.728 -0.1955  0.1633 -0.1457
    1W        W55705  12.348   1.507   8.540  0.1682 -0.0316  0.0820
    1W        W55706  19.967  20.383   1.373 -0.0668  0.0392 -0.0263
    1W        W55707  15.608  13.856   0.900  0.1017 -0.2498  0.2714
    1W        W55708   6.822   6.000   0.809  0.1506  0.0009 -0.1691
    1W        W55709  22.262   4.364   1.034  0.0393  0.1073  0.1447
    1W        W55710  12.679   2.533   3.237 -0.6096  0.1980 -0.4149
    1W        W55711  25.840  14.317   0.519 -0.0891  0.2234  0.0593
    1W        W55712  27.062  15.149   1.377  0.0700 -0.0128  0.2407
    1W        W55713  24.631  18.573   9.125 -0.0789 -0.0680 -0.1389
    1W        W55714  20.968   6.680   8.079  0.0390  0.2146 -0.2947
    1W        W55715  10.414   0.732   2.524 -0.1624  0.0902 -0.2041
    1W        W55716   8.523   7.884   8.118  0.0450 -0.3060 -0.0769
    1W        W55717   9.778  11.077   8.734 -0.2896 -0.2650  0.0616
    1W        W55718  25.907  24.804   8.744 -0.3249 -0.1501 -0.0337
    1W        W55719  10.794  27.819   9.261  0.1263  0.0239 -0.1209
    1W        W55720   9.380   8.685   8.771  0.1895  0.1520  0.1276
    1W        W55721   8.455  20.212   7.239  0.0972 -0.1130  0.0598
    1W        W55722  23.835  24.960   0.585  0.2296  0.2199  0.2214
    1W        W55723   3.423  29.976   9.002  0.0548  0.0214  0.0036
    1W        W55724  25.764  29.348   3.310  0.1645  0.0738  0.0204
    1W        W55725  26.455  25.480   7.502  0.0550  0.3586 -0.2465
    1W        W55726  30.144  12.950   0.236  0.2603 -0.1901 -0.2854
    1W        W55727   8.744   1.924   1.947 -0.0932 -0.3068 -0.0623
    1W        W55728   9.065  29.503   1.367  0.0355  0.1603  0.1561
    1W        W55729  16.833   4.111   0.306 -0.2019  0.3004  0.2001
    1W        W55730   1.997   4.450   1.134  0.2174  0.0958 -0.1693
    1W        W55731  27.139   1.005   1.423  0.2316 -0.0050 -0.0125
    1W        W55732   1.128  23.899   0.620  0.2820  0.0876  0.0451
    1W        W55733  16.981   5.026   6.968  0.1189  0.1112  0.1200
    1W        W55734   6.569   2.913   8.106 -0.2104 -0.1032  0.0739
    1W        W55735  24.837  10.642   1.350  0.0466  0.1266 -0.1941
    1W        W55736  26.630  17.792   0.175 -0.0592 -0.3055 -0.1375
    1W        W55737   9.234  12.599   8.014 -0.1249 -0.1676 -0.1266
    1W        W55738  11.322  25.947   8.251  0.0054 -0.0508 -0.1210
    1W        W55739   0.289  16.467   9.033  0.1035 -0.0540 -0.2196
    1W        W55740   3.830   0.125   2.221  0.2906 -0.0059 -0.0116
    1W        W55741  12.908  28.746   9.131  0.1086  0.0877 -0.2719
    1W        W55742  17.134   5.180   9.138  0.1301 -0.0575  0.0637
    1W        W55743  22.035   0.441   2.741 -0.0877 -0.0358 -0.1207
    1W        W55744   3.856  30.266   8.113 -0.1325  0.0178  0.2866
    1W        W55745   5.062  23.166   8.813  0.1834 -0.2878  0.2025
    1W        W55746  14.244   6.498   0.249 -0.3406  0.2463  0.1269
    1W        W55747   3.595   7.242   7.201 -0.0194 -0.2030  0.1122
    1W        W55748  24.364  23.498   7.972 -0.2402 -0.0660  0.2045
    1W        W55749   7.859   7.976   7.341 -0.2198  0.1433  0.0838
    1W        W55750  25.109  15.430   0.156 -0.0056 -0.5621 -0.1839
    1W        W55751  16.658  15.588   8.091  0.1126 -0.1576  0.0510
    1W        W55752  22.264  10.936   8.475 -0.0346  0.0321 -0.0297
    1W        W55753  21.481   6.244   3.199  0.0089  0.2005 -0.2534
    1W        W55754   1.159  21.809   0.418 -0.2716  0.0427  0.0019
    1W        W55755  24.719   0.243   7.697 -0.0449 -0.0575 -0.1586
    1W        W55756  23.311  13.478   1.745 -0.0749 -0.2120 -0.1349
    1W        W55757  23.209  25.163   2.856  0.0813  0.2443 -0.1516
    1W        W55758   0.993  29.688   1.340 -0.0270 -0.1225 -0.0013
    1W        W55759  24.650   1.586   1.211 -0.0901  0.2329 -0.4810
    1W        W55760  10.559   6.489   7.718 -0.2017 -0.1234  0.3908
    1W        W55761  27.728   8.272   8.538  0.0069  0.2436  0.0336
    1W        W55762  15.606  14.108   9.035 -0.1565 -0.1673 -0.2469
    1W        W55763  15.727  19.909   0.301  0.0472  0.2251 -0.0280
    1W        W55764   8.714  23.922   8.379 -0.3000 -0.0863  0.0138
    1W        W55765  15.630  17.254   7.135  0.1288 -0.2355  0.0169
    1W        W55766  12.295  29.256   8.359 -0.1078  0.1786  0.0888
    1W        W55767   7.015   4.859   7.803 -0.0862 -0.1212 -0.1179
    1W        W55768  14.083   7.029   8.300 -0.0061  0.0848  0.2202
    1W        W55769   5.235  22.824   0.722 -0.0747 -0.1431  0.3567
    1W        W55770  23.816  26.990   9.049  0.0101 -0.0059 -0.1562
    1W        W55771  10.509  17.537   6.355 -0.0566 -0.0090 -0.0404
    1W        W55772   9.353   1.704   7.912 -0.2651 -0.1368  0.2384
    1W        W55773   0.103  19.501   1.527 -0.2029  0.1612  0.2767
    1W        W55774  25.300  24.729   3.170  0.0812  0.0856 -0.0060
    1W        W55775   4.268  19.047   7.612 -0.0794 -0.0054  0.0706
    1W        W55776   3.259  20.560   8.871  0.1036  0.0275 -0.1997
    1W        W55777  19.535  24.829   8.353 -0.1039 -0.1664  0.0358
    1W        W55778  21.245   7.166   0.335 -0.0681 -0.1791 -0.0083
    1W        W55779   8.250   6.931   8.926 -0.0354  0.1231  0.1109
    1W        W55780   2.166  25.330   8.327 -0.2736 -0.1200  0.1406
    1W        W55781  29.345  22.983   0.126  0.0884  0.1598  0.0538
    1W        W55782  15.872  24.778   0.264  0.0384 -0.0091  0.0603
    1W        W55783  13.996  16.077   9.039 -0.0069  0.0515  0.3921
    1W        W55784  27.833  15.385   0.672 -0.2455 -0.2286  0.1322
    1W        W55785   1.555   2.269   3.532  0.0239 -0.1237 -0.0204
    1W        W55786  22.038   9.043   6.143  0.2211 -0.1208  0.0900
    1W        W55787   1.618  17.103   0.894 -0.1117  0.1385  0.0415
    1W        W55788  23.241   6.580   7.689  0.0406 -0.0846  0.1059
    1W        W55789   0.258  22.259   0.590  0.1233 -0.1540  0.0784
    1W        W55790  10.725   7.206   1.137  0.0155  0.2456 -0.4056
    1W        W55791  22.532  20.329   9.070  0.1008  0.0597  0.0233
    1W        W55792  23.353  26.513   2.376  0.2162 -0.0897  0.2288
    1W        W55793  26.538  14.125   2.266 -0.0871  0.1643 -0.2157
    1W        W55794  12.392  18.441   7.653 -0.2597  0.0121 -0.2774
    1W        W55795  24.395  16.286   6.457 -0.0468  0.1013  0.0060
    1W        W55796  24.287   8.443   6.633 -0.0938  0.1720 -0.1155
    1W        W55797   6.688  25.501   8.430 -0.2321  0.1874 -0.4202
    1W        W55798   1.122  11.635   7.812  0.0668  0.1511  0.3367
    1W        W55799   1.429  27.607   2.056 -0.3139  0.1382  0.1349
    1W        W55800   3.441  14.306   6.918 -0.1269 -0.1055 -0.3000
    1W        W55801  17.854  10.121   0.984  0.1554  0.2050 -0.2728
    1W        W55802   7.702  22.649   8.721  0.1871  0.2764  0.1373
    1W        W55803   0.001  23.726   1.571  0.0986  0.0052 -0.1607
    1W        W55804  22.452  25.855   1.074 -0.2077 -0.0451 -0.1918
    1W        W55805  23.858  27.195   2.978 -0.0861 -0.0828 -0.0019
    1W        W55806  11.306  28.304   1.821 -0.1899  0.2417 -0.2685
    1W        W55807  11.508  27.897   0.750 -0.0201  0.1924 -0.2267
    1W        W55808  19.261  15.211   2.023  0.0460 -0.1265 -0.4473
    1W        W55809   7.418   6.411   7.031  0.0427  0.2430  0.0626
    1W        W55810  25.516  11.218   2.406 -0.1835 -0.3953 -0.0766
    1W        W55811   8.513  25.378   0.482  0.1002  0.2114  0.1722
    1W        W55812  25.611   8.973   1.340  0.0999 -0.0763 -0.0525
    1W        W55813   7.448   5.332   2.795 -0.0132  0.0519  0.0349
    1W        W55814   6.312  29.288   1.985  0.1219  0.0337  0.1643
    1W        W55815  10.333  27.571   7.431 -0.1505  0.1372 -0.0093
    1W        W55816  21.182  13.264   9.150  0.2670 -0.0242  0.0866
    1W        W55817  10.654  19.380   2.049 -0.0084  0.2005 -0.2858
    1W        W55818  28.837  16.965   1.345  0.0856  0.0083 -0.1691
    1W        W55819  20.814   4.951   2.542  0.1628  0.1529  0.1471
    1W        W55820  14.923  20.623   8.747 -0.2525 -0.0425 -0.0778
    1W        W55821   9.462  20.948   7.194 -0.1441 -0.0337 -0.0045
    1W        W55822  29.868  28.864   3.131 -0.0294  0.0093 -0.0131
    1W        W55823  19.005  17.943   1.499 -0.3596  0.0976 -0.0137
    1W        W55824   5.177   7.720   1.216  0.1153 -0.0138  0.2952
    1W        W55825  22.188   0.099   0.798  0.3075 -0.0610 -0.1793
    1W        W55826  15.713  22.423   8.384  0.0022 -0.0674  0.2099
    1W        W55827   9.632   9.154   0.711  0.1157 -0.2176  0.2505
    1W        W55828   1.358  29.812   7.002 -0.4433  0.1468 -0.0848
    1W        W55829   1.107  29.974   8.389  0.0307  0.0625 -0.0656
    1W        W55830  23.843  24.121   7.828 -0.0307 -0.3200 -0.0282
    1W        W55831  29.684   9.592   0.060  0.0631 -0.1908  0.0270
    1W        W55832  17.691   9.665   9.181  0.0289  0.4459 -0.2450
    1W        W55833   4.251  17.294   1.916 -0.4673 -0.0722  0.0898
    1W        W55834   9.125  13.009   1.823 -0.2318  0.1076  0.3177
    1W        W55835  27.135  11.759   6.761  0.2996 -0.3511 -0.0809
    1W        W55836  12.127  10.991   3.086 -0.1532  0.0807  0.0974
    1W        W55837   7.120  21.625   1.143 -0.0183 -0.4891 -0.1052
    1W        W55838   4.526  19.264   0.305  0.0156 -0.3150  0.0730
    1W        W55839  13.572   8.285   7.865  0.1377  0.0229  0.1818
    1W        W55840   4.657  19.712   6.613 -0.1106 -0.3298 -0.1320
    1W        W55841   8.030  12.023   6.735  0.0286 -0.0417 -0.2405
    1W        W55842  14.306   2.894   3.050  0.0650 -0.0649  0.0281
    1W        W55843   8.342   6.811   8.446 -0.1876 -0.0750 -0.0670
    1W        W55844  15.295   3.266   7.649 -0.5098  0.0598  0.0027
    1W        W55845  19.799  11.392   7.088 -0.1058  0.0050 -0.0417
    1W        W55846  18.858  28.898   2.612 -0.1546 -0.0172  0.0132
    1W        W55847  23.947  24.636   8.208 -0.1329  0.0727  0.2383
    1W        W55848   7.718  15.084   7.707  0.2030 -0.0582 -0.0748
    1W        W55849  13.153  11.716   2.474 -0.1765  0.2227  0.2665
    1W        W55850   5.383  22.393   9.121  0.1704 -0.0612 -0.0779
    1W        W55851  13.311  24.941   1.021  0.1357  0.0635  0.1534
    1W        W55852  30.099   1.490   3.501 -0.0097  0.1978 -0.1129
    1W        W55853   9.959  18.187   1.988 -0.3769 -0.0724  0.0366
    1W        W55854  29.360  27.138   9.030 -0.0770  0.0798 -0.2664
    1W        W55855  12.710  25.111   0.362 -0.2208 -0.1158  0.1517
    1W        W55856  13.055  30.238   8.670  0.2156 -0.0371 -0.0854
    1W        W55857  17.333  20.644   8.797 -0.1154  0.0690  0.0182
    1W        W55858  25.516  19.802   7.378  0.1774  0.0432 -0.0303
    1W        W55859  16.614  23.019   2.583  0.1668  0.0458 -0.1055
    1W        W55860  12.666  12.383   8.827  0.1837 -0.0019 -0.2264
    1W        W55861   4.000  23.491   2.589 -0.0224  0.2516  0.0295
    1W        W55862  12.562  23.358   1.503  0.0077 -0.0029  0.0611
    1W        W55863  22.402   6.996   2.361  0.3171 -0.0628 -0.0627
    1W        W55864   1.254   5.570   8.191 -0.4608 -0.1925 -0.0463
    1W        W55865   0.564  28.018   2.959  0.1109  0.3939 -0.0028
    1W        W55866  17.745   8.614   5.868 -0.0209 -0.0618 -0.1347
    1W        W55867  11.246   6.391   0.322 -0.3560 -0.2948 -0.4835
    1W        W55868   9.550   1.897   8.333 -0.1754  0.0786  0.2703
    1W        W55869  14.846   8.937   1.259 -0.0306  0.1366 -0.1091
    1W        W55870  26.158   2.531   0.410 -0.0114  0.2145  0.1561
    1W        W55871  17.953  27.730   0.589 -0.1470 -0.2997 -0.0510
    1W        W55872   2.389   2.463   8.227  0.3622  0.0708  0.2615
    1W        W55873   7.058  15.834   8.059 -0.2189  0.1339 -0.1129
    1W        W55874  13.228  20.112   5.859 -0.1176  0.2625 -0.1042
    1W        W55875  20.510  11.467   2.065  0.0675 -0.1360 -0.2342
    1W        W55876  12.664   4.484   0.464  0.0698 -0.2821 -0.0589
    1W        W55877  18.158   1.476   2.523  0.0434  0.4508  0.0847
    1W        W55878  19.355  13.049   0.586 -0.1860 -0.1489  0.2261
    1W        W55879   1.103  18.879   6.544  0.1162 -0.2308 -0.1405
    1W        W55880  14.831  17.786   8.383  0.0662  0.1677  0.0357
    1W        W55881  21.805   5.626   2.542 -0.2734 -0.4208 -0.2178
    1W        W55882  28.997  12.441   1.480 -0.0579 -0.0060  0.1394
    1W        W55883   8.738  23.583   2.729 -0.0164 -0.0395  0.0353
    1W        W55884  29.657   0.221   2.205  0.3011  0.0214 -0.1417
    1W        W55885   4.408  15.697   0.917  0.0241 -0.2874  0.3832
    1W        W55886   8.198  27.364   2.731 -0.2210  0.1853  0.3559
    1W        W55887  13.581  22.995   6.696  0.1171 -0.0856  0.0879
    1W        W55888  23.702  23.199   6.103 -0.2636 -0.0742 -0.0455
    1W        W55889   7.988  28.080   8.013 -0.1293  0.1089  0.0286
    1W        W55890  19.293  28.866   2.354  0.0250  0.2884 -0.0152
    1W        W55891   3.774   8.981   7.119  0.0116  0.3460 -0.4728
    1W        W55892  27.999   4.632   7.537 -0.0194  0.0415  0.1774
    1W        W55893   0.589   9.138   0.190  0.2081  0.2321  0.1007
    1W        W55894  16.684   2.457   7.872  0.1796  0.0828 -0.0807
    1W        W55895  15.909  22.596   8.861  0.0247 -0.1200  0.0014
    1W        W55896   7.045   6.937   7.800 -0.1379  0.0527  0.1111
    1W        W55897  20.645  10.666   7.944  0.1486 -0.1016 -0.1394
    1W        W55898  15.651   7.078   1.330  0.1259 -0.2743 -0.3118
    1W        W55899  18.821  16.802   0.914  0.1114  0.1154 -0.0657
    1W        W55900  17.710  18.393   1.552  0.1010 -0.1462  0.0342
    1W        W55901  19.095   9.341   7.996 -0.0426  0.1764 -0.0584
    1W        W55902  25.733  15.373   8.748  0.1827  0.0027  0.0085
    1W        W55903  13.869  17.424   6.653  0.0642 -0.0284  0.1360
    1W        W55904  25.121  17.393   0.042 -0.1519  0.2470 -0.1548
    1W        W55905  21.683   6.205   0.255  0.1609  0.3108 -0.0752
    1W        W55906  22.994  24.257   1.514 -0.2892 -0.1059 -0.0054
    1W        W55907  14.363   0.735   1.754 -0.0144  0.1295 -0.1021
    1W        W55908  11.533  11.711   7.215 -0.0609  0.1538  0.1176
    1W        W55909  16.574  12.384   2.748 -0.3689  0.0028 -0.1975
    1W        W55910  19.518  26.044   8.541 -0.3060  0.0232 -0.4434
    1W        W55911  24.880  20.750   6.442 -0.0370  0.2690  0.1624
    1W        W55912  13.784  12.865   7.748  0.1880 -0.1084  0.0616
    1W        W55913   6.101  25.051   2.265 -0.1265  0.3280 -0.1950
    1W        W55914  30.220  15.401   8.250  0.0875  0.0817  0.1421
    1W        W55915   6.348  26.244   0.969 -0.1471  0.2102 -0.0205
    1W        W55916  22.780   9.457   1.009 -0.1846 -0.0385  0.0169
    1W        W55917  21.074  23.413   7.018  0.0380 -0.0400 -0.0597
    1W        W55918  10.788  20.223   0.337  0.0329 -0.1358  0.1847
    1W        W55919  11.786  18.607   1.222 -0.3662 -0.0885 -0.1793
    1W        W55920   2.328  30.354   2.409  0.0583 -0.0545 -0.2830
    1W        W55921   7.409   7.823   1.466  0.0436  0.2491 -0.2244
    1W        W55922   4.820  23.074   0.509  0.1461 -0.0389 -0.2278
    1W        W55923  20.535   2.094   0.961  0.0023  0.0804  0.2434
    1W        W55924   0.750  11.478   8.834  0.3636 -0.1799 -0.2179
    1W        W55925  19.518  30.148   8.008 -0.0299 -0.0371 -0.1890
    1W        W55926  26.649  14.326   1.599 -0.3111 -0.1157 -0.1628
    1W        W55927  10.251   0.327   2.050  0.2358  0.1355 -0.0796
    1W        W55928  14.682   2.075   7.370 -0.0539  0.3565  0.0139
    1W        W55929  24.437  25.450   1.804 -0.4217  0.1045 -0.4051
    1W        W55930  17.823  30.001   7.524  0.1858  0.0871 -0.0696
    1W        W55931  13.901  26.634   2.590 -0.2287  0.2104 -0.2853
    1W        W55932  22.566  14.881   0.627  0.1178  0.1127  0.1501
    1W        W55933  28.391  28.036   1.835 -0.1293 -0.1947 -0.1376
    1W        W55934   2.121   4.828   3.358 -0.1421  0.3348  0.0400
    1W        W55935  21.508  11.607   1.029 -0.1632 -0.0722  0.2877
    1W        W55936   5.837  22.604   7.396 -0.0094 -0.0984  0.0363
    1W        W55937   0.874  26.893   0.591 -0.1980 -0.0666  0.1717
    1W        W55938  20.845  18.022   9.154 -0.3563  0.2130  0.0660
    1W        W55939   2.290   9.870   7.282 -0.0237 -0.0993 -0.0509
    1W        W55940  28.050   3.409   0.724  0.1092  0.0166 -0.0138
    1W        W55941   6.402  13.876   0.191  0.0726 -0.1529 -0.1234
    1W        W55942  12.382  13.392   1.607 -0.0444 -0.0051 -0.0445
    1W        W55943  26.941  26.420   8.277 -0.1035 -0.0814 -0.0530
    1W        W55944   1.222   4.343   7.579  0.1339 -0.1087  0.0046
    1W        W55945   9.385  24.690   6.247  0.2753 -0.1068 -0.1181
    1W        W55946   7.671  16.372   8.173  0.2318  0.2179 -0.1422
    1W        W55947  29.341   0.743   3.104  0.0406 -0.1706 -0.1169
    1W        W55948   6.972  18.621   1.318  0.0758 -0.4756 -0.1049
    1W        W55949  23.817  21.257   7.674 -0.0741  0.3116 -0.0711
    1W        W55950   3.579  23.973   7.205 -0.0053 -0.3603  0.1511
    1W        W55951  17.528  26.470   1.958 -0.1041 -0.0493 -0.2856
    1W        W55952   4.438   4.261   2.651  0.1667 -0.2478 -0.0343
    1W        W55953   3.882   0.156   1.691  0.2024  0.2353  0.2474
    1W        W55954  17.604  29.961   8.996  0.0853 -0.1419  0.0173
    1W        W55955  27.454   2.958   0.353  0.1982  0.1600  0.1232
    1W        W55956  10.414  28.601   0.356 -0.3704 -0.0247 -0.1515
    1W        W55957  15.111  20.317   0.704  0.1864 -0.1243  0.3402
    1W        W55958  25.486   7.399   3.063 -0.1061 -0.1000 -0.0279
    1W        W55959   4.308   4.131   2.179  0.0657 -0.1094  0.1448
    1W        W55960  18.327   7.597   1.348  0.1914  0.2646  0.1715
    1W        W55961  26.087   6.173   7.485 -0.1391 -0.0971 -0.1616
    1W        W55962   4.017   6.578   1.871 -0.1484  0.1676  0.2182
    1W        W55963  13.359  22.743   7.424 -0.1614  0.1335  0.3396
    1W        W55964   6.871  12.481   0.797  0.0183  0.2872  0.1886
    1W        W55965  24.612  19.202   0.632  0.0853  0.0602  0.4973
    1W        W55966   6.155  20.681   9.051 -0.0927  0.1961 -0.0698
    1W        W55967   5.536  20.742   0.911  0.0272  0.2487 -0.0316
    1W        W55968   3.900  21.355   6.928 -0.2830  0.1357 -0.0006
    1W        W55969  13.464  27.565   0.775  0.0078 -0.0387  0.0180
    1W        W55970  22.676   4.562   1.737  0.3308  0.1401 -0.0469
    1W        W55971  29.267  20.488   1.388 -0.0585  0.3504  0.0341
    1W        W55972  12.997  13.746   1.295 -0.1266 -0.1377 -0.2086
    1W        W55973  23.672   7.927   8.920 -0.2143  0.0428  0.0133
    1W        W55974   0.473   0.873   6.982  0.0460 -0.0616 -0.0602
    1W        W55975  26.592  16.336   0.992 -0.0173  0.1786 -0.1109
    1W        W55976  22.111   7.545   8.422 -0.0376 -0.0685 -0.3904
    1W        W55977  30.188   3.470   2.010 -0.3067 -0.1795  0.1797
    1W        W55978   9.323  10.195   2.126  0.0529  0.0988  0.0611
    1W        W55979  10.036  22.913   8.669 -0.1774  0.0594  0.0616
    1W        W55980  30.298   5.493   7.047 -0.0369 -0.0039 -0.0137
    1W        W55981  25.259  25.033   8.453 -0.0096  0.0905 -0.1787
    1W        W55982   2.186   5.428   7.320 -0.3863 -0.0262  0.0469
    1W        W55983  10.861  25.770   8.039  0.0470  0.1287 -0.0599
    1W        W55984  15.522   0.318   5.959  0.3177  0.2539 -0.2117
    1W        W55985  10.839  13.256   1.260  0.2886 -0.1138 -0.2160
    1W        W55986   8.249  17.242   6.637 -0.1810 -0.0969 -0.3341
    1W        W55987  17.661  26.434   1.457  0.2331  0.1740 -0.2132
    1W        W55988   4.803  10.832   0.731  0.0926  0.0646  0.0461
    1W        W55989  27.204  10.827   5.999 -0.2242 -0.0999  0.0394
    1W        W55990   7.826  10.475   2.195 -0.2448 -0.0503 -0.0902
    1W        W55991   6.708  22.384   7.186  0.2273  0.4531  0.2813
    1W        W55992  23.052  16.910   6.759 -0.4098  0.0643  0.0327
    1W        W55993   4.039  16.678   7.472  0.5217  0.2923  0.0641
    1W        W55994  29.650  28.817   2.720 -0.0940  0.0050 -0.1646
    1W        W55995  22.917  17.461   0.758  0.0912  0.4351 -0.3876
    1W        W55996  23.864  29.419   7.189  0.0036 -0.1091 -0.0297
    1W        W55997  17.413  22.962   9.161 -0.0417  0.0768  0.0755
    1W        W55998   4.466  27.445   0.655 -0.0535 -0.0023 -0.1958
    1W        W55999  23.424   2.678   2.108 -0.1234 -0.3509 -0.0064
    1W        W56000  11.475  27.723   9.001 -0.2039 -0.1454  0.0992
    1W        W56001  30.293   1.075   2.232  0.2349  0.0419  0.2787
    1W        W56002  18.457  12.506   7.242  0.0819 -0.0898 -0.2494
    1W        W56003  27.292  18.836   7.206  0.0589 -0.0798  0.1418
    1W        W56004  17.022  16.893   0.773  0.0901  0.1654  0.0474
    1W        W56005  26.766   0.005   1.893  0.1242 -0.3012 -0.0847
    1W        W56006  24.724   7.321   2.160 -0.0596 -0.0264 -0.2319
    1W        W56007   0.137   9.817   1.569 -0.2424 -0.1060  0.4894
    1W        W56008  23.962  12.833   7.148 -0.2080  0.1132 -0.0788
    1W        W56009  16.057  25.182   0.463 -0.0189  0.2371  0.0338
    1W        W56010  16.889  29.876   7.070 -0.0601  0.1676 -0.2556
    1W        W56011   1.778   4.026   3.342 -0.1488 -0.2003 -0.3580
    1W        W56012  28.750   3.073   1.470  0.0160 -0.0356  0.1724
    1W        W56013  16.016  19.234   8.174 -0.0781  0.0681  0.1326
    1W        W56014   7.762  25.472   0.187 -0.2032 -0.1448  0.1951
    1W        W56015  16.657  23.954   6.628  0.2087 -0.0324  0.2824
    1W        W56016   5.805   3.826   7.446  0.1859 -0.0803  0.0856
    1W        W56017   6.506   0.734   1.556  0.1802  0.1106  0.1816
    1W        W56018  10.950  24.790   7.535  0.0319  0.1277 -0.0396
    1W        W56019  23.438  25.764   8.699 -0.1901 -0.3136 -0.0342
    1W        W56020   3.861   2.991   8.216 -0.2220  0.1186 -0.0016
    1W        W56021   3.500   4.625   2.366  0.0153 -0.2321 -0.0532
    1W        W56022   7.867  19.639   7.474 -0.1700  0.0347  0.0440
    1W        W56023  10.819  10.857   8.225  0.0466  0.4541 -0.0878
    1W        W56024   5.039  12.389   8.133  0.2019  0.1581  0.1453
    1W        W56025  12.412  26.762   0.272  0.0598  0.1761  0.0537
    1W        W56026   7.897  17.736   1.496 -0.1660  0.0493  0.0358
    1W        W56027  17.774  26.630   2.458  0.0211 -0.2765 -0.0497
    1W        W56028   3.880   9.233   8.406  0.0018 -0.1576  0.0388
    1W        W56029  15.184  10.140   1.885 -0.0078 -0.0732  0.2093
    1W        W56030  10.446  24.383   6.675 -0.1121  0.1199 -0.3290
    1W        W56031  25.431  11.223   8.192 -0.0127  0.0781  0.2474
    1W        W56032  16.393  28.410   7.343  0.0063  0.0360  0.3636
    1W        W56033  16.693  23.526   0.433 -0.1379 -0.1466 -0.1838
    1W        W56034  10.221   5.186   9.172 -0.0203 -0.0650 -0.1643
    1W        W56035  10.026   8.078   2.139  0.0694 -0.4331  0.4492
    1W        W56036   6.116  12.256   8.944 -0.0034 -0.0397 -0.0888
    1W        W56037  22.710   3.108   6.674  0.1144  0.0790 -0.1058
    1W        W56038  19.608  28.003   9.091  0.1410 -0.1167  0.0840
    1W        W56039  10.476  14.146   7.571 -0.0079  0.2668  0.4460
    1W        W56040   4.177  25.714   8.656 -0.0635  0.4434 -0.2110
    1W        W56041   6.689  18.600   6.718 -0.2395  0.2768 -0.0684
    1W        W56042   0.202   7.708   0.543 -0.0076  0.0676  0.0026
    1W        W56043   6.979  23.430   1.326  0.0198 -0.1980  0.0699
    1W        W56044  29.208   9.628   2.641 -0.0407 -0.1160 -0.2149
    1W        W56045  24.201   5.180   1.608 -0.1896 -0.0556  0.2683
    1W        W56046   7.472   9.360   2.738 -0.0161 -0.1956 -0.0233
    1W        W56047  25.285  13.169   9.148  0.2206  0.2424 -0.1563
    1W        W56048  23.497  16.688   5.935 -0.0889  0.0645 -0.2232
    1W        W56049   0.754  18.736   7.515 -0.0913  0.2224 -0.0409
    1W        W56050  14.891   6.918   2.512  0.3579  0.1603 -0.0108
    1W        W56051   1.771  24.191   7.636 -0.1062 -0.0325  0.1164
    1W        W56052  13.537  25.860   8.695 -0.0779 -0.3126  0.3722
    1W        W56053  11.240   8.978   7.139 -0.0044 -0.0156  0.1177
    1W        W56054  25.625   8.876   8.313 -0.0717  0.0899  0.3613
    1W        W56055  23.692  27.823   8.866  0.0165  0.0545 -0.1611
    1W        W56056  14.645   6.468   7.890 -0.0047 -0.1746  0.2816
    1W        W56057  29.594  20.014   7.156  0.1679  0.1001  0.1578
    1W        W56058  15.470  25.655   0.631  0.3389  0.1332 -0.2914
    1W        W56059   1.255  28.528   1.900 -0.0065 -0.3280  0.3250
    1W        W56060  29.595  25.288   2.441 -0.1382 -0.2344  0.0581
    1W        W56061  21.190  27.581   3.642  0.3127 -0.0708 -0.1488
    1W        W56062  24.663   6.755   0.083 -0.0243 -0.1309 -0.0655
    1W        W56063  28.989  24.042   8.625  0.1891 -0.1282 -0.1507
    1W        W56064  11.151   8.504   7.383 -0.2473 -0.1778  0.2098
    1W        W56065  27.765  14.499   1.602  0.0643 -0.1109 -0.1240
    1W        W56066  12.970  23.600   0.427  0.1580 -0.4502  0.0865
    1W        W56067  14.338  21.004   6.879  0.1490  0.0768  0.1625
    1W        W56068  12.190   0.653   1.681  0.0385  0.2447 -0.2649
    1W        W56069   6.476  30.268   1.611  0.0687  0.3610 -0.0092
    1W        W56070   1.172  17.108   0.672  0.1166 -0.1588  0.0907
    1W        W56071   2.157  13.562   7.655  0.0281 -0.0017  0.0943
    1W        W56072  29.054   5.437   7.432 -0.0243  0.1058 -0.2571
    1W        W56073  13.120  21.163   1.216  0.0413  0.2747 -0.0428
    1W        W56074  26.300  29.284   0.500  0.1082 -0.1962  0.1998
    1W        W56075  25.085  29.131   2.312 -0.2054 -0.3773 -0.0810
    1W        W56076  26.931  15.311   7.312 -0.0606 -0.2596  0.1635
    1W        W56077  26.645   6.256   2.895  0.2517 -0.0249  0.0521
    1W        W56078   4.570  24.862   1.627  0.0822 -0.4692 -0.3484
    1W        W56079   6.157  17.024   1.373  0.0205  0.2614  0.4655
    1W        W56080  29.473  12.466   1.720 -0.0604 -0.1382  0.0381
    1W        W56081  17.932   7.244   7.473 -0.1281 -0.0165 -0.1357
    1W        W56082   9.776  22.104   1.391  0.3017 -0.1518 -0.0441
    1W        W56083  26.307  11.659   1.742  0.0905  0.0321  0.0062
    1W        W56084  15.483   0.966   2.100 -0.2538 -0.1428 -0.0875
    1W        W56085   2.957   4.800   3.140 -0.0748  0.1169  0.0755
    1W        W56086  19.426  14.008   6.286 -0.1167  0.1259 -0.0497
    1W        W56087  23.421  14.670   5.872  0.0397  0.2250  0.0201
    1W        W56088  15.663  24.184   5.951  0.3265  0.2510  0.2038
    1W        W56089  30.198  25.310   2.092 -0.0447  0.0060 -0.1933
    1W        W56090  13.022  12.108   0.950  0.0547  0.1236  0.2711
    1W        W56091  22.913   5.460   8.787 -0.1482  0.1602  0.1035
    1W        W56092  20.592  15.234   2.240  0.0403  0.1953 -0.0984
    1W        W56093   4.750  29.102   8.646  0.3164  0.0162 -0.5944
    1W        W56094   5.818   3.829   8.022 -0.3316 -0.2492  0.0604
    1W        W56095  24.468  10.266   6.717 -0.1679 -0.3771  0.4133
    1W        W56096   8.619   4.576   8.885 -0.0552 -0.0494  0.3595
    1W        W56097  13.598   7.640   9.026  0.1325  0.2973 -0.1032
    1W        W56098  11.137  20.886   8.357 -0.1150  0.4319  0.0990
    1W        W56099  22.989  29.561   7.750 -0.1927  0.1055 -0.0224
    1W        W56100   7.572  26.266   8.939  0.1847 -0.0124  0.1370
    1W        W56101  14.971   6.411   8.354  0.2607  0.0809 -0.3616
    1W        W56102  20.903   8.482   7.499 -0.1209 -0.0682  0.0796
    1W        W56103   1.552  18.981   7.871  0.0599  0.0924 -0.1594
    1W        W56104   3.133   0.351   2.668 -0.5915 -0.3489  0.0371
    1W        W56105  10.483   3.897   7.727 -0.2473  0.0666 -0.0860
    1W        W56106   0.434  18.228   0.123  0.0217  0.0536  0.1398
    1W        W56107   9.540  22.148   7.063 -0.0269  0.1304 -0.0208
    1W        W56108  30.100  15.482   6.905 -0.4015 -0.0565  0.1856
    1W        W56109   5.408  21.897   8.815 -0.0040 -0.0173  0.1406
    1W        W56110  11.852  18.243   0.782 -0.2722  0.0864  0.0309
    1W        W56111  13.061  19.285   7.780 -0.1428  0.1045  0.0366
    1W        W56112  25.688  15.496   7.807 -0.1884 -0.2730  0.1078
    1W        W56113  22.976  24.865   8.918  0.2481 -0.0258  0.1842
    1W        W56114   3.596  23.850   1.843 -0.1209  0.0908 -0.2584
    1W        W56115  27.135   2.333   8.117 -0.0630 -0.2531  0.1405
    1W        W56116   4.930   9.527   0.903 -0.0987 -0.1945 -0.2903
    1W        W56117   1.793   4.175   0.724  0.1682 -0.1388  0.2815
    1W        W56118  14.565  18.963   7.197  0.0271 -0.0021 -0.1004
    1W        W56119   9.252  24.806   0.796 -0.1388  0.1065  0.0373
    1W        W56120  19.233  12.379   1.429 -0.0157  0.1305  0.1294
    1W        W56121  26.869  11.257   7.509  0.1492  0.2497 -0.0181
    1W        W56122  28.256  21.794   1.036  0.2513 -0.3039 -0.0386
    1W        W56123  20.494  16.688   8.064 -0.2894 -0.0165 -0.1845
    1W        W56124   0.051   1.696   3.843  0.0829  0.0343  0.5711
    1W        W56125  20.966   4.862   1.373  0.0641  0.0537  0.3037
    1W        W56126   2.407  21.268   7.111 -0.1204 -0.0803  0.0628
    1W        W56127  22.228  13.528   1.901 -0.3131  0.0093  0.1270
    1W        W56128   5.034   0.400   1.641  0.0116  0.1176 -0.0481
    1W        W56129  26.152  24.673   0.129  0.3005 -0.1340 -0.1828
    1W        W56130  21.708   3.106   3.681  0.1183 -0.0882  0.1307
    1W        W56131  21.605   5.759   1.137 -0.0778  0.1162 -0.2252
    1W        W56132   7.261  29.733   1.441 -0.1734 -0.1079  0.1406
    1W        W56133   3.232  25.098   1.325 -0.0757 -0.0782 -0.3281
    1W        W56134  20.559  29.236   0.315 -0.4233 -0.1040  0.0560
    1W        W56135   0.225  19.423   6.208 -0.0336 -0.3041  0.0868
    1W        W56136  27.864   9.453   1.752  0.0132  0.0182  0.0982
    1W        W56137  24.776  17.350   8.523 -0.0222 -0.1386 -0.2466
    1W        W56138  15.524  17.850   2.192  0.0813  0.2408 -0.0370
    1W        W56139  11.145  22.280   8.312  0.0200 -0.0222 -0.3313
    1W        W56140  23.850  15.972   0.316  0.4166  0.1505  0.1086
    1W        W56141   0.035  13.936   2.059  0.0416  0.1058 -0.0091
    1W        W56142  13.193  18.878   7.431 -0.1558  0.1400 -0.1322
    1W        W56143  26.127  16.324   1.264  0.2764  0.2492  0.0152
    1W        W56144   9.022  23.643   6.896  0.2328 -0.0243  0.0238
    1W        W56145  27.925   0.800   7.980  0.1456  0.0386  0.1081
    1W        W56146  14.007   0.938   1.442  0.1103  0.0649 -0.1740
    1W        W56147   3.718   4.701   8.240 -0.0647  0.1480 -0.1964
    1W        W56148  29.365  17.979   1.416 -0.3009  0.0123 -0.1166
    1W        W56149  28.997  28.890   1.288  0.0984 -0.0328 -0.0463
    1W        W56150   5.667  10.806   8.098  0.2962 -0.1176  0.2789
    1W        W56151   6.906  10.345   9.181 -0.1613 -0.1858 -0.0380
    1W        W56152  19.982  29.944   1.416 -0.1827  0.1503  0.3167
    1W        W56153  26.272   9.963   8.599  0.0772  0.0191 -0.2441
    1W        W56154   3.432  25.650   2.599  0.1397 -0.0901  0.1484
    1W        W56155  13.763  20.702   0.574  0.0457 -0.1948  0.2530
    1W        W56156   3.302  21.985   1.126 -0.2339  0.1887  0.0543
    1W        W56157   9.948   3.609   8.625  0.0226 -0.3481  0.2676
    1W        W56158  13.142  24.011   1.278 -0.0326 -0.0613 -0.0146
    1W        W56159  23.987  10.148   8.359  0.1241  0.0940 -0.2244
    1W        W56160  26.669   6.086   2.035 -0.1819 -0.0855 -0.0210
    1W        W56161  15.230  14.545   1.427  0.0946  0.2997  0.0942
    1W        W56162  20.783  13.652   8.824  0.2600  0.0170 -0.0197
    1W        W56163   3.088   1.784   3.148 -0.0675 -0.1844  0.1622
    1W        W56164  16.485   1.450   1.277 -0.1694 -0.1168 -0.2591
    1W        W56165   4.706   9.385   7.204  0.2304 -0.1317  0.4380
    1W        W56166  15.027  10.417   8.606 -0.1248  0.1715 -0.4642
    1W        W56167  19.557  24.939   1.522  0.3040  0.1485  0.1292
    1W        W56168  25.183  16.406   7.031  0.5630  0.1421 -0.0771
    1W        W56169  19.209   0.116   2.209  0.2295 -0.0562  0.1907
    1W        W56170  25.767  13.895   8.500  0.0167 -0.2968  0.1382
    1W        W56171  27.139  28.390   9.187  0.1060 -0.2452  0.0102
    1W        W56172   7.464  17.458   7.390 -0.0336  0.3418 -0.0718
    1W        W56173   1.781   7.676   0.977 -0.0542  0.3434  0.0824
    1W        W56174   0.715  16.067   6.857 -0.1486  0.1112  0.0907
    1W        W56175   9.595  17.293   6.083  0.2093 -0.0633  0.2347
    1W        W56176  22.576   4.397   8.887  0.0002  0.0704  0.2730
    1W        W56177   5.902  21.955   7.563 -0.1209  0.1339 -0.0945
    1W        W56178   2.040   3.433   0.868  0.1079 -0.0300 -0.2979
    1W        W56179   1.994   2.670   0.034  0.0665  0.2762 -0.1144
    1W        W56180   2.709  24.643   8.852 -0.1701  0.2684 -0.0871
    1W        W56181   4.849   3.157   2.820 -0.0775  0.0159  0.1040
    1W        W56182   9.724  17.576   0.076 -0.1577  0.1529  0.0639
    1W        W56183   3.125  26.739   3.460  0.0556  0.0196  0.0510
    1W        W56184  12.146  17.546   7.777 -0.0885 -0.2621  0.0822
    1W        W56185  28.134   9.014   2.637 -0.2594 -0.0105 -0.1388
    1W        W56186   8.826   0.398   1.085  0.1513 -0.4459  0.0657
    1W        W56187  21.977  17.781   5.648 -0.0229 -0.3829 -0.0752
    1W        W56188   2.490  30.292   0.459  0.1082  0.0211 -0.4415
    1W        W56189   9.064   3.760   7.827  0.1493 -0.2238  0.3679
    1W        W56190   8.425   5.146   7.341 -0.0483  0.2870 -0.0143
    1W        W56191  16.877   7.255   6.709  0.2123 -0.3722 -0.0194
    1W        W56192  25.197  18.286   7.381  0.3483 -0.0656 -0.1017
    1W        W56193   5.087   9.707   7.473  0.1250 -0.0173 -0.2344
    1W        W56194   3.214   2.086   1.851  0.0849 -0.0233  0.2144
    1W        W56195  20.372  25.952   3.524  0.3996  0.1246  0.0874
    1W        W56196  25.376  28.844   9.205 -0.0578  0.1928 -0.3017
    1W        W56197   3.117  27.639   3.570  0.1367 -0.0263  0.0018
    1W        W56198  18.396   2.954   6.847 -0.1672 -0.0742 -0.1217
    1W        W56199  24.160  20.526   6.888  0.1384  0.1615 -0.0453
    1W        W56200   8.928   4.929   2.345 -0.1432 -0.0035 -0.4867
    1W        W56201  29.226  13.815   0.955  0.0148  0.1835 -0.2947
    1W        W56202   9.499  14.099   0.965  0.1071  0.0429 -0.1472
    1W        W56203  29.408  28.795   0.904  0.1217  0.1423  0.3468
    1W        W56204  24.298   2.348   0.540  0.4390  0.1338  0.0665
    1W        W56205   6.508   1.686   3.305 -0.0409  0.1541 -0.0214
    1W        W56206  10.512   4.808   2.081  0.0172  0.2139  0.1853
    1W        W56207   1.877  16.116   0.331  0.2207 -0.2475  0.1542
    1W        W56208   9.264  17.218   7.401  0.2605  0.0068 -0.0576
    1W        W56209   4.065  12.128   6.511  0.0549  0.1287 -0.4374
    1W        W56210  25.953  13.977   0.111  0.1298 -0.0510  0.3232
    1W        W56211  18.092  25.580   3.063  0.0856  0.0476  0.0840
    1W        W56212  29.022  11.343   0.726  0.0979  0.0291  0.0354
    1W        W56213  20.656  27.218   8.897  0.5565 -0.0082 -0.1329
    1W        W56214   1.352   3.944   1.738  0.0814  0.0477 -0.0520
    1W        W56215   4.754  16.044   9.055 -0.1897 -0.0294  0.2126
    1W        W56216  27.175  10.309   6.890 -0.0203  0.0749 -0.2208
    1W        W56217   1.397  12.601   0.545 -0.2889  0.0547 -0.0817
    1W        W56218   2.064  23.874   0.509 -0.2963 -0.1328  0.0792
    1W        W56219   1.573  25.617   1.935 -0.3106 -0.0506 -0.0227
    1W        W56220  18.591  26.029   0.291 -0.0808 -0.2812 -0.1381
    1W        W56221  15.589  19.276   5.781 -0.0586  0.1056  0.0741
    1W        W56222   6.459  30.135   2.155  0.3335  0.1193  0.0322
    1W        W56223  10.416  26.709   6.502  0.1598  0.0308  0.3007
    1W        W56224  29.900   0.061   7.234 -0.2099  0.2714 -0.1856
    1W        W56225  10.629  18.855   9.145  0.0303  0.2047 -0.1349
    1W        W56226   1.993  11.188   0.246  0.1394 -0.2855 -0.3779
    1W        W56227  20.979  19.706   1.416  0.0290  0.1223 -0.1510
    1W        W56228   2.935  27.741   3.110 -0.5160  0.0113 -0.2629
    1W        W56229  22.653   0.158   8.046 -0.2857 -0.4530 -0.4040
    1W        W56230   2.203  18.294   8.058  0.0765 -0.0051  0.0279
    1W        W56231  12.691  26.287   9.117  0.0894 -0.1423 -0.2993
    1W        W56232  26.663   5.320   0.705 -0.1018  0.2115 -0.0306
    1W        W56233  21.579  19.782   1.849  0.0511  0.1222  0.1916
    1W        W56234  12.939  16.455   1.352 -0.0690 -0.2403 -0.0691
    1W        W56235   4.990   3.386   0.927  0.1152 -0.0115  0.3193
    1W        W56236   6.832  22.456   8.347  0.1258  0.0919 -0.2168
    1W        W56237  20.800  18.190   6.895  0.1146 -0.1803  0.1323
    1W        W56238   9.069  17.451   7.851  0.1840 -0.0206  0.2461
    1W        W56239   4.761   3.966   6.969 -0.1420 -0.1823  0.1648
    1W        W56240  13.723  23.606   7.865  0.3223 -0.0135  0.1178
    1W        W56241  14.576  18.883   0.419 -0.3373 -0.1183  0.2511
    1W        W56242  22.681   8.440   2.785  0.0567  0.0685  0.1327
    1W        W56243   2.141   5.845   7.650 -0.1307 -0.1958  0.0227
    1W        W56244  29.603  21.914   8.901  0.0345 -0.0398 -0.1044
    1W        W56245  10.177   4.845   8.068 -0.1389  0.0160 -0.0320
    1W        W56246  21.388  15.520   1.725 -0.0972  0.0527  0.2911
    1W        W56247   8.798   3.083   8.490 -0.0366 -0.0374  0.1456
    1W        W56248  22.239  29.046   8.993  0.1481 -0.1139 -0.0792
    1W        W56249   8.525  28.530   8.341 -0.0340  0.2648  0.0654
    1W        W56250  23.076   3.970   2.461  0.0212  0.2588  0.1809
    1W        W56251   1.240   5.756   7.424 -0.1892 -0.0079  0.0656
    1W        W56252   7.803   7.079   8.607  0.4499  0.0149 -0.4315
    1W        W56253  22.608  21.117   0.402  0.1379 -0.0059 -0.1678
    1W        W56254  14.072  14.762   7.660  0.1428  0.2083  0.0345
    1W        W56255  13.385  27.253   8.865 -0.2085  0.3030  0.1795
    1W        W56256  12.068   7.834   1.116 -0.2955 -0.1743 -0.2186
    1W        W56257   0.047   6.985   9.077  0.1625 -0.4608  0.0698
    1W        W56258   9.157  25.182   0.013 -0.1752  0.0065 -0.1363
    1W        W56259  24.355   8.409   1.286  0.3477 -0.0395 -0.0071
    1W        W56260  24.009   3.571   2.532 -0.0372  0.1257 -0.3093
    1W        W56261  29.849   4.933   3.251  0.0184 -0.1137 -0.0237
    1W        W56262  29.202  14.360   7.306  0.2604 -0.4437 -0.2741
    1W        W56263  28.223  21.333   8.130 -0.2958  0.0884  0.1523
    1W        W56264   6.167  27.260   3.398 -0.3168 -0.3917 -0.1032
    1W        W56265   9.379  10.669   2.187  0.3756 -0.1120 -0.3870
    1W        W56266   2.714  24.251   1.867  0.4325  0.0145 -0.1557
    1W        W56267   1.461   1.716   0.778 -0.2346  0.2060  0.1349
    1W        W56268  12.073  24.210   0.093 -0.0150  0.0500  0.2430
    1W        W56269  27.243   6.408   0.785 -0.1309 -0.3124 -0.0974
    1W        W56270   0.865  29.468   3.802 -0.0950 -0.1613 -0.1253
    1W        W56271  11.860  13.507   0.393 -0.2434  0.1784 -0.2158
    1W        W56272  11.371  13.787   3.576 -0.3245 -0.1021 -0.1419
    1W        W56273  11.942  16.834   1.588 -0.1469 -0.2437 -0.1486
    1W        W56274  20.263   1.147   1.330  0.2248  0.0493  0.2474
    1W        W56275  19.253  19.370   7.123  0.1662  0.1517 -0.2026
    1W        W56276  15.947  26.947   1.047  0.3286 -0.2021  0.0931
    1W        W56277  25.394  15.191   1.064 -0.0344 -0.0636 -0.0238
    1W        W56278  12.426  13.806   1.221 -0.2009 -0.0999 -0.1248
    1W        W56279  24.383  26.494   7.795  0.1290 -0.0772 -0.1211
    1W        W56280  28.673  24.924   7.099  0.0949  0.3118 -0.1313
    1W        W56281  23.434  16.851   8.370 -0.0414  0.1587  0.2193
    1W        W56282  20.652   7.905   2.957 -0.1091 -0.0944  0.1203
    1W        W56283  28.355  23.891   1.511 -0.1319  0.1425 -0.2328
    1W        W56284  28.665  18.974   8.401 -0.0831 -0.4145 -0.0698
    1W        W56285  26.927  16.782   9.059 -0.0459  0.2650  0.3732
    1W        W56286  20.063   7.488   0.206 -0.2682 -0.0809 -0.1380
    1W        W56287  30.027  20.617   6.263  0.1712  0.0810 -0.0786
    1W        W56288   7.653  29.395   7.701  0.0020  0.1851  0.1640
    1W        W56289  15.066  18.321   6.551 -0.1452 -0.2225 -0.0555
    1W        W56290  24.154  26.790   8.213 -0.0859  0.3804  0.1241
    1W        W56291  25.473   2.937   0.613  0.1224 -0.0388  0.1989
    1W        W56292  29.101   7.699   8.576  0.0967  0.0462 -0.0879
    1W        W56293  12.013  28.216   7.433  0.1409  0.1607  0.0267
    1W        W56294  15.902  13.209   0.096 -0.3918 -0.0798  0.2460
    1W        W56295  24.861  27.763   0.636  0.1860 -0.2544  0.3094
    1W        W56296  13.703  18.869   1.599  0.1254  0.4434  0.2834
    1W        W56297  29.207  24.263   7.329  0.1357  0.0917  0.0669
    1W        W56298  25.890   8.368   6.358  0.0061  0.4702 -0.0825
    1W        W56299   9.047   1.058   7.428 -0.0593  0.0291 -0.1380
    1W        W56300  15.725  18.500   1.528 -0.0182 -0.2958 -0.1459
    1W        W56301  29.920  29.268   8.872  0.1643  0.3343 -0.0055
    1W        W56302  26.807   6.895   0.066 -0.1601 -0.1533  0.0176
    1W        W56303   3.742  25.022   9.180  0.0627  0.5332 -0.0559
    1W        W56304  24.908  21.952   8.582  0.1224 -0.1717 -0.5499
    1W        W56305  24.226  22.937   7.277 -0.1022 -0.1579  0.0203
    1W        W56306  14.833  19.643   6.467  0.0880 -0.0579  0.1401
    1W        W56307   1.879   0.911   3.635 -0.0295  0.1982 -0.0810
    1W        W56308  17.695   4.881   8.234  0.0632  0.3248 -0.0147
    1W        W56309  17.205  29.477   2.221  0.0351 -0.1647  0.2556
    1W        W56310  16.328   2.985   2.438  0.0891  0.1830 -0.2025
    1W        W56311  20.416   5.464   7.211 -0.2223  0.1925  0.2799
    1W        W56312  11.509   3.982   8.869 -0.1162  0.2487  0.0918
    1W        W56313  27.648  26.178   8.973  0.0979 -0.3427  0.0744
    1W        W56314  25.049  15.182   0.691  0.1593  0.0411 -0.1157
    1W        W56315  22.612   9.117   1.977 -0.0122 -0.2261  0.1603
    1W        W56316  22.630   6.522   0.664  0.1748 -0.0287 -0.1095
    1W        W56317   9.653  21.219   0.168  0.1126  0.1820  0.0892
    1W        W56318   5.385  12.675   8.571 -0.2375  0.0691 -0.1769
    1W        W56319  10.856  16.295   1.264 -0.1896 -0.0776  0.1463
    1W        W56320  15.040   5.720   6.200 -0.1783  0.2272 -0.1270
    1W        W56321   0.296   3.363   7.197  0.2109 -0.1102 -0.2921
    1W        W56322  17.476  25.066   1.088  0.0778  0.2621  0.0230
    1W        W56323  21.985  14.986   2.162  0.1795 -0.2619  0.0420
    1W        W56324  13.797  11.115   3.647 -0.1800  0.1854 -0.3168
    1W        W56325  12.001  18.651   6.400  0.2423 -0.1001  0.0312
    1W        W56326  22.856  12.918   8.453  0.1395  0.2209 -0.0424
    1W        W56327  21.346  22.458   6.378 -0.3762 -0.3391  0.1824
    1W        W56328   1.863   4.319   1.653  0.0938 -0.0427 -0.1586
    1W        W56329  23.067  27.180   7.913 -0.1754  0.0193  0.4361
    1W        W56330  12.289  10.220   0.165 -0.0953  0.3285 -0.1649
    1W        W56331   7.370  14.222   1.436  0.0997 -0.1293  0.0113
    1W        W56332  23.434   1.307   1.508  0.4771  0.3291  0.0968
    1W        W56333  22.646  27.385   2.441 -0.1305  0.0166  0.4269
    1W        W56334  12.446  19.268   0.573 -0.2224 -0.0940  0.3894
    1W        W56335  14.444  12.104   3.372  0.3363  0.1024  0.4553
    1W        W56336   3.668  10.525   8.716 -0.0805 -0.0002  0.1528
    1W        W56337  15.038  29.267   0.215  0.0523  0.0732 -0.1507
    1W        W56338   8.828  26.512   0.452 -0.2059 -0.0731 -0.2535
    1W        W56339  25.353  21.656   8.577  0.2031 -0.2882 -0.1011
    1W        W56340  13.837   2.255   2.384 -0.0219 -0.1186 -0.1191
    1W        W56341   1.109   2.724   1.832  0.2580 -0.2017 -0.1917
    1W        W56342   6.941  28.887   2.246 -0.3113 -0.0163  0.0928
    1W        W56343   4.165  28.920   9.222 -0.2587 -0.0098 -0.2219
    1W        W56344  12.208   1.096   2.001  0.3073 -0.0161 -0.1577
    1W        W56345   3.479  29.953   8.035  0.0289 -0.0042 -0.0260
    1W        W56346  10.002  22.153   6.691 -0.2308  0.3741 -0.2716
    1W        W56347   5.908  13.871   1.295  0.1338  0.2746 -0.2356
    1W        W56348  18.714   8.452   6.352 -0.0941  0.2215  0.1348
    1W        W56349  24.892  25.364   8.405  0.0268 -0.0196  0.0445
    1W        W56350  17.434   6.747   1.558 -0.2610 -0.1834  0.0330
    1W        W56351  24.470  13.867   1.358 -0.0113 -0.0424 -0.3834
    1W        W56352  20.403  29.882   2.795 -0.0871 -0.2351  0.0011
    1W        W56353  27.959   0.374   8.984  0.3489 -0.0094 -0.2179
    1W        W56354   3.423  12.907   7.995 -0.5250  0.1242 -0.0616
    1W        W56355   8.426  22.204   7.472 -0.1473 -0.1588  0.2491
    1W        W56356  20.022  29.584   2.596 -0.1751 -0.1679  0.0237
    1W        W56357   7.904  11.091   1.605 -0.1251  0.3885  0.0652
    1W        W56358  11.411   6.331   6.215  0.2205 -0.1134 -0.0342
    1W        W56359  29.649  14.091   8.872  0.1681  0.1608 -0.1094
    1W        W56360  28.254  16.139   7.504  0.1804  0.1766  0.0294
    1W        W56361   6.168  23.679   0.709 -0.0534 -0.1786 -0.1295
    1W        W56362   7.168  27.316   7.796  0.1518 -0.0550  0.1397
    1W        W56363   0.146   5.460   1.617  0.0922 -0.0180  0.1134
    1W        W56364  19.947  23.915   1.306 -0.2935  0.0027 -0.0225
    1W        W56365   0.175  14.505   8.035  0.0417  0.1054  0.0432
    1W        W56366  23.738   7.754   1.630  0.1261 -0.0681  0.1087
    1W        W56367  10.981   1.429   7.608 -0.4421  0.1661 -0.0579
    1W        W56368  19.240  11.583   2.126  0.0002  0.2558 -0.0897
    1W        W56369   8.541  10.918   2.448 -0.0081  0.1050  0.3829
    1W        W56370   4.261   0.562   8.883 -0.1256  0.2534  0.4542
    1W        W56371  28.497  12.314   1.526  0.1298  0.0080 -0.0847
    1W        W56372  12.893  13.399   0.109 -0.0806 -0.3731  0.1038
    1W        W56373   5.242  13.815   7.098  0.0973 -0.0247  0.3771
    1W        W56374  26.067  18.080   1.277 -0.2042 -0.2885  0.0223
    1W        W56375  27.328  22.248   6.549  0.2336  0.0421  0.1358
    1W        W56376   7.299  22.030   6.542  0.0582  0.1810  0.0279
    1W        W56377   3.162  17.784   1.799 -0.0738 -0.1522  0.2853
    1W        W56378  19.128  15.807   0.692 -0.2651  0.0515  0.2450
    1W        W56379  18.326  24.690   1.069 -0.0731  0.1855 -0.3162
    1W        W56380  26.585  23.690   8.116  0.1647  0.1069  0.1189
    1W        W56381  15.603  15.080   2.878 -0.0500  0.0330 -0.1514
    1W        W56382  28.523  16.933   6.286  0.1012 -0.2058 -0.0754
    1W        W56383  13.534   8.889   0.638  0.3490 -0.2057 -0.1142
    1W        W56384  16.715   8.736   7.477 -0.2415  0.0606  0.1468
    1W        W56385  10.975   2.429   0.805 -0.0757  0.1367  0.1951
    1W        W56386  12.587  25.843   7.185 -0.0146 -0.0352  0.0553
    1W        W56387   2.645   9.287   2.408  0.0483 -0.1875 -0.3669
    1W        W56388  17.105  30.354   1.024  0.3799  0.3115 -0.1044
    1W        W56389   8.903  24.213   8.839  0.1046  0.1710 -0.0192
    1W        W56390   9.871  23.963   0.238  0.3372  0.0944 -0.2137
    1W        W56391  29.796  13.633   8.383 -0.1612  0.2251 -0.0942
    1W        W56392  16.361  27.000   1.777  0.0216  0.0284  0.0792
    1W        W56393  26.271   6.755   1.933  0.1099 -0.0884  0.2265
    1W        W56394  12.830  18.836   6.975  0.2041  0.3699  0.0863
    1W        W56395   2.861   5.443   1.392  0.2282 -0.0332 -0.0072
    1W        W56396   8.925  21.968   1.725  0.3358  0.1017  0.2459
    1W        W56397  28.196  24.374   8.858 -0.1402 -0.3592 -0.0223
    1W        W56398   0.645  10.538   1.761 -0.1041 -0.2754 -0.0882
    1W        W56399   2.134  22.072   0.481 -0.4939 -0.3224  0.2075
    1W        W56400  24.226   6.600   7.737 -0.1947 -0.1090 -0.0209
    1W        W56401  20.876  12.242   3.000 -0.0226  0.3033 -0.0155
    1W        W56402  16.126   6.083   9.049  0.0751 -0.0529 -0.1608
    1W        W56403   8.197   8.895   6.914 -0.2257  0.1752  0.0668
    1W        W56404  13.137   8.637   9.005 -0.3623 -0.2719 -0.0403
    1W        W56405  15.752  22.023   0.243 -0.2241 -0.0455  0.1600
    1W        W56406  26.453  26.854   0.568  0.3823  0.0377 -0.0094
    1W        W56407  30.240  22.184   7.155 -0.0005  0.1528 -0.1669
    1W        W56408   8.543  26.509   1.801  0.0420 -0.1424 -0.3542
    1W        W56409   1.289   2.613   8.889 -0.2607  0.2528 -0.0077
    1W        W56410   5.372  25.011   0.273 -0.1347  0.3103  0.1260
    1W        W56411   6.335  23.714   1.612  0.1254  0.1145 -0.0378
    1W        W56412   6.658  23.533   7.313 -0.1490  0.0831  0.0698
    1W        W56413  30.046   4.737   9.190  0.1814  0.0779  0.3965
    1W        W56414  29.175  26.829   2.493 -0.0867 -0.3635  0.0498
    1W        W56415   3.581   7.393   8.020 -0.0409 -0.1950 -0.1046
    1W        W56416  10.329  15.857   2.366 -0.3987  0.0389 -0.5238
    1W        W56417  29.364   2.913   2.199 -0.0391  0.0752  0.1410
    1W        W56418   0.338  27.601   1.283 -0.0203 -0.0289 -0.1492
    1W        W56419  13.047  16.763   6.405 -0.3061 -0.1186 -0.0421
    1W        W56420   8.289   8.825   7.652  0.0057  0.3253 -0.1145
    1W        W56421  18.418  17.350   7.470  0.1936 -0.1013 -0.1990
    1W        W56422  19.150  21.192   8.942 -0.2452 -0.0346  0.1630
    1W        W56423  18.566  17.730   2.650 -0.0153 -0.0000  0.1208
    1W        W56424  13.705   5.502   2.065 -0.0920 -0.1835  0.0972
    1W        W56425  10.104  19.529   2.312  0.0195  0.1698  0.1619
    1W        W56426  26.798  25.606   9.069  0.0019 -0.1155  0.1115
    1W        W56427   5.934   5.145   1.744 -0.2246 -0.0908  0.3638
    1W        W56428  11.585   1.476   2.437  0.0991 -0.0570  0.0972
    1W        W56429  14.574  22.967   6.492  0.0471 -0.1309 -0.1505
    1W        W56430  26.425  27.388   7.612 -0.1097  0.0637 -0.0587
    1W        W56431  12.753  10.042   0.223 -0.0113 -0.1447 -0.0355
    1W        W56432  25.922  11.798   5.438 -0.1666 -0.3007 -0.1487
    1W        W56433  24.476  20.127   0.616  0.1833  0.3675 -0.0970
    1W        W56434   3.137  29.122   8.803  0.2267 -0.1448  0.1164
    1W        W56435  12.677  13.065   8.523  0.2278  0.0336  0.0189
    1W        W56436   5.419  16.610   2.302 -0.1148  0.0170  0.0802
    1W        W56437  26.732   1.608   7.537 -0.1529 -0.0472 -0.2291
    1W        W56438   9.689  25.822   1.447 -0.3077  0.3642  0.0103
    1W        W56439   5.477   6.965   8.901 -0.3008 -0.0800 -0.1696
    1W        W56440  26.441  18.282   6.563  0.0596 -0.0276  0.0806
    1W        W56441  24.126   0.316   9.221 -0.1952  0.1071 -0.1345
    1W        W56442  19.688   4.597   9.269  0.0061 -0.1118 -0.1332
    1W        W56443  18.102   2.492   7.589  0.3197  0.2328  0.0018
    1W        W56444  12.181   2.011   7.179 -0.1665  0.2288  0.0335
    1W        W56445  22.270   1.886   3.194  0.0483 -0.1190  0.2602
    1W        W56446  20.841   3.907   0.092 -0.0331  0.3120 -0.0724
    1W        W56447   1.339  19.874   8.992  0.0548  0.1703 -0.2371
    1W        W56448  19.988  25.476   6.723 -0.1604  0.2416  0.1059
    1W        W56449   0.900   4.392   0.456  0.0159 -0.1505 -0.0492
    1W        W56450  23.455   1.796   2.651 -0.2198 -0.2884 -0.1727
    1W        W56451  24.696   0.903   1.188 -0.0953 -0.3666 -0.0847
    1W        W56452  23.504   0.677   6.977 -0.0675  0.1635 -0.2055
    1W        W56453  23.635  28.138   9.249  0.1330 -0.0769  0.1238
    1W        W56454  28.223  30.311   1.840  0.0404 -0.1714 -0.0531
    1W        W56455  28.033  24.418   0.469  0.2245  0.0763  0.1491
    1W        W56456  14.077  21.090   8.547  0.1876  0.0874 -0.0210
    1W        W56457   4.790  19.021   6.916 -0.2209  0.0710  0.2644
    1W        W56458  12.483   8.801   7.311  0.2415  0.0998  0.0872
    1W        W56459   5.800  14.874   0.533  0.2124  0.0187  0.0774
    1W        W56460  20.419   1.704   8.608  0.1667 -0.1529 -0.1292
    1W        W56461   4.953  21.088   8.577  0.0619 -0.2057  0.0257
    1W        W56462  25.264   1.913   8.300  0.0451  0.1174 -0.4422
    1W        W56463  26.200  24.267   6.000 -0.1996  0.0063 -0.2722
    1W        W56464  18.906   5.083   7.993  0.0669  0.2811 -0.0931
    1W        W56465  27.900  10.575   0.986 -0.1162  0.3881 -0.3706
    1W        W56466  18.250   1.782   9.073 -0.0322  0.1286  0.0663
    1W        W56467  28.900  11.940   8.419 -0.4361  0.3938 -0.0108
    1W        W56468  25.086   2.037   2.405 -0.0415 -0.2134  0.2007
    1W        W56469   7.770   0.518   1.100  0.2084  0.4106  0.2288
    1W        W56470   8.879  15.153   0.915 -0.0083  0.2210 -0.0138
    1W        W56471   3.208  17.604   7.713  0.0679 -0.0564 -0.2638
    1W        W56472  23.958  13.304   7.409  0.5018  0.3013 -0.1823
    1W        W56473   9.962  16.649   1.548 -0.1619 -0.1294  0.0765
    1W        W56474  27.981  10.925   7.673  0.0565 -0.0447 -0.0657
    1W        W56475  25.792   6.671   6.536 -0.1988 -0.0649 -0.3328
    1W        W56476  17.349  24.984   6.237 -0.3313 -0.0493  0.2085
    1W        W56477  26.530  12.580   2.504  0.3212  0.0197  0.1489
    1W        W56478  15.946   6.288   0.762  0.0006  0.1152 -0.1225
    1W        W56479  20.237  28.876   7.391 -0.1073 -0.0188  0.0974
    1W        W56480   6.889   6.106   8.887  0.1266  0.1194 -0.0078
    1W        W56481  12.034   4.951   9.180  0.1934 -0.2812 -0.2007
    1W        W56482  13.999   5.111   1.061  0.0053 -0.1784  0.0113
    1W        W56483  20.627  12.656   0.630  0.0069  0.0161  0.1097
    1W        W56484   1.080  24.069   9.169 -0.1574 -0.0401 -0.1313
    1W        W56485   5.634  29.143   0.062 -0.2227 -0.2639  0.2999
    1W        W56486  17.304  27.755   8.837  0.1836 -0.0549 -0.0275
    1W        W56487   7.387  21.060   7.218  0.1875  0.1392 -0.1840
    1W        W56488   7.353  23.813   8.410  0.0718 -0.2595 -0.2820
    1W        W56489  30.105   9.358   9.184  0.0011  0.0057  0.4089
    1W        W56490  26.343  14.938   5.954  0.2097 -0.1037 -0.0563
    1W        W56491   8.723  28.354   1.807 -0.0225 -0.2917 -0.2903
    1W        W56492  19.415  20.036   6.600 -0.2000  0.0882 -0.1649
    1W        W56493   4.948  11.870   6.130  0.0408 -0.1215 -0.1929
    1W        W56494  25.113  19.146   7.899  0.2422 -0.1677 -0.0872
    1W        W56495  20.892   7.436   2.004 -0.2277  0.1086 -0.2501
    1W        W56496   1.289   3.646   2.674  0.1506  0.2136 -0.2273
    1W        W56497  16.772   3.994   8.606  0.0899  0.0705 -0.0073
    1W        W56498   3.251  13.995   0.136  0.1562  0.2166  0.0802
    1W        W56499  19.472   4.407   2.168 -0.0016 -0.0205  0.4983
    1W        W56500  26.541  20.256   7.837 -0.0170 -0.2622 -0.0858
    1W        W56501   6.420   3.314   0.633 -0.0226 -0.1125 -0.4049
    1W        W56502  16.238   6.079   2.102  0.1382 -0.1269 -0.0468
    1W        W56503  13.189  10.471   0.992 -0.0226  0.2472 -0.2567
    1W        W56504  28.587  23.510   8.300 -0.0265 -0.2304  0.1788
    1W        W56505   2.976  30.128   2.181  0.1632 -0.1781 -0.0101
    1W        W56506   4.313  10.848   0.733  0.2344 -0.0109 -0.3446
    1W        W56507  27.610  12.966   8.727 -0.0615 -0.2551  0.1957
    1W        W56508  23.281  13.339   0.912 -0.0559 -0.2470 -0.1905
    1W        W56509  21.915   5.151   2.810  0.2563  0.1420  0.0030
    1W        W56510  28.873  10.818   1.151  0.0674 -0.1645 -0.1790
    1W        W56511  24.295  29.622   6.888  0.1017 -0.0201 -0.0958
    1W        W56512  21.219   2.931   3.358 -0.1995 -0.1939  0.1944
    1W        W56513  13.977  27.790   8.683  0.0463 -0.1678  0.1303
    1W        W56514  27.233  15.643   1.093 -0.0217  0.0637  0.0291
    1W        W56515  26.212  22.795   2.893 -0.0753  0.2082  0.0135
    1W        W56516  17.271  10.580   8.006  0.1412 -0.2830  0.0402
    1W        W56517  16.303  17.280   9.081  0.0100 -0.2610 -0.0797
    1W        W56518  22.898  29.654   6.821 -0.2087 -0.0403  0.2725
    1W        W56519  20.990  24.058   1.439  0.0461 -0.2529  0.1221
    1W        W56520  27.161  15.634   1.720 -0.0748 -0.1493  0.3626
    1W        W56521  12.848  15.126   9.088 -0.1820 -0.0051 -0.1739
    1W        W56522   4.147  10.025   7.018 -0.0860 -0.3927  0.0172
    1W        W56523  16.672   7.997   1.233 -0.1957 -0.1387 -0.2003
    1W        W56524  14.155  27.359   2.773 -0.0737 -0.1000  0.4058
    1W        W56525  23.326  12.511   9.177 -0.1473 -0.2877  0.1027
    1W        W56526  10.896  17.327   1.070 -0.0870  0.1954  0.0505
    1W        W56527  17.664  15.007   6.675 -0.3522  0.3028  0.0307
    1W        W56528  19.873   5.860   1.863  0.1237  0.0260 -0.3919
    1W        W56529   8.989  24.331   0.042 -0.0094  0.2041  0.0544
    1W        W56530  16.442  27.533   6.871  0.2566  0.3855  0.1756
    1W        W56531  20.716  23.740   8.999 -0.0140  0.0609  0.1551
    1W        W56532  17.734  15.197   1.689 -0.1066 -0.1046  0.0449
    1W        W56533   0.857  25.036   7.539 -0.1406 -0.0833  0.0977
    1W        W56534  14.850  13.812   0.840 -0.0878  0.2914  0.0653
    1W        W56535  12.871  17.363   6.786  0.0878 -0.0357 -0.0569
    1W        W56536  16.511  24.344   1.396  0.1400  0.3436  0.0296
    1W        W56537  29.973  26.427   1.060  0.0562  0.0721  0.0748
    1W        W56538  20.103  30.128   8.733 -0.1469  0.2999 -0.1375
    1W        W56539   0.818  28.175   8.300 -0.1570  0.2332  0.1573
    1W        W56540  16.123  19.267   0.958 -0.0436 -0.2929  0.0191
    1W        W56541  14.272  15.679   8.438 -0.0144 -0.0398  0.1968
    1W        W56542  27.144   1.816   8.862  0.2370  0.1936  0.4269
    1W        W56543  18.623  27.006   0.164 -0.2212 -0.0988  0.1151
    1W        W56544  11.294  26.971   1.156 -0.2378  0.1272  0.0109
    1W        W56545  22.424  26.371   8.966  0.0224  0.0396  0.1378
    1W        W56546  29.077  23.450   1.768 -0.1134 -0.1262  0.2511
    1W        W56547   6.790  29.886   7.218  0.2242 -0.0418  0.0746
    1W        W56548  29.769   8.271   2.520 -0.1123 -0.3194 -0.0511
    1W        W56549  22.223  22.276   1.177 -0.2214  0.1040  0.0674
    1W        W56550   0.628   7.641   7.194 -0.1156 -0.1636 -0.2877
    1W        W56551  14.518  16.111   7.720 -0.1362  0.0228 -0.2687
    1W        W56552  27.303  28.073   8.012  0.1512 -0.2995 -0.0690
    1W        W56553  18.123  20.924   1.974 -0.1225 -0.1132 -0.0515
    1W        W56554   4.159   0.277   7.817 -0.3568  0.2721  0.4224
    1W        W56555  14.552  27.204   1.242  0.2312  0.0413 -0.0245
    1W        W56556   3.428   6.676   0.337  0.1534 -0.0573  0.0248
    1W        W56557  21.207   9.154   5.508  0.1309  0.0046 -0.3279
    1W        W56558  24.645  11.305   6.410 -0.0752  0.1543  0.0027
    1W        W56559  28.192   1.277   1.435 -0.2798  0.0709  0.1170
    1W        W56560  27.019   3.218   0.306  0.2284 -0.0653  0.1815
    1W        W56561   8.353  19.446   0.406 -0.0973 -0.0685  0.1862
    1W        W56562  19.955   5.479   0.918  0.1649  0.2456 -0.1435
    1W        W56563  17.978  28.196   0.341  0.0387 -0.1584 -0.4308
    1W        W56564  10.333  22.809   0.554 -0.3615  0.0926  0.0634
    1W        W56565  21.251   7.445   2.397  0.1692 -0.1532  0.0505
    1W        W56566   2.659   6.399   9.191 -0.1319  0.2319  0.1616
    1W        W56567   0.078  19.677   6.726 -0.0743 -0.0007  0.5883
    1W        W56568  16.443  13.536   6.980 -0.1006  0.1857  0.4888
    1W        W56569   7.333  30.066   8.208 -0.2184  0.3056 -0.2096
    1W        W56570  17.598  13.759   7.644 -0.4337  0.2040  0.0861
    1W        W56571  18.090  24.541   7.175 -0.3006  0.0446 -0.0163
    1W        W56572  16.367  15.282   8.423 -0.2440 -0.0722 -0.3178
    1W        W56573  19.964   2.420   0.424 -0.2018 -0.0903 -0.2936
    1W        W56574  25.876   1.482   7.722 -0.2832 -0.0505  0.1818
    1W        W56575  25.205   2.445   9.161 -0.0276 -0.0891 -0.2731
    1W        W56576  19.227  14.813   8.249 -0.1749  0.1378 -0.1110
    1W        W56577  15.172  11.217   9.056 -0.2035  0.3105  0.2213
    1W        W56578   8.457   3.487   3.403 -0.1652  0.1001 -0.3200
    1W        W56579  29.463  22.619   2.206  0.0467 -0.0684  0.0716
    1W        W56580  19.568  30.268   1.346  0.1875  0.0035 -0.2274
    1W        W56581  10.506   5.905   0.294 -0.2117  0.1950  0.0366
    1W        W56582   5.526  20.659   6.623 -0.0054 -0.2173 -0.3160
    1W        W56583  14.092   7.166   1.922  0.0184 -0.0639  0.3059
    1W        W56584  14.082   2.858   7.058  0.1725  0.4103 -0.2835
    1W        W56585   7.211  26.549   7.338 -0.0105  0.1075  0.3299
    1W        W56586   9.392  24.622   7.272 -0.1800 -0.0607 -0.0223
    1W        W56587  27.333  13.711   1.488  0.0912 -0.2765 -0.0691
    1W        W56588  25.975  14.974   0.910 -0.0043  0.1691  0.0562
    1W        W56589   1.769   0.937   2.975  0.1332 -0.2213 -0.0861
    1W        W56590  23.525   8.722   7.254 -0.0408 -0.1999 -0.1859
    1W        W56591  13.325   0.751   7.118 -0.0724  0.0263  0.0383
    1W        W56592   2.875   0.337   8.953 -0.2761 -0.1165  0.0918
    1W        W56593  17.577   0.883   0.350 -0.2160 -0.1753 -0.0447
    1W        W56594  27.957  26.980   9.258 -0.0771 -0.0440  0.3701
    1W        W56595  20.507   4.998   3.059 -0.0042 -0.0234  0.0924
    1W        W56596  26.760   7.422   2.370  0.3003 -0.2157  0.1978
    1W        W56597  26.078  27.050   0.827 -0.0858 -0.0614  0.0512
    1W        W56598  19.809  24.897   1.957  0.0670  0.3748  0.0753
    1W        W56599   1.129   3.162   2.858 -0.1783  0.2965  0.2764
    1W        W56600   7.499  27.607   1.264 -0.1189 -0.3909  0.1251
    1W        W56601  22.250  20.949   0.122 -0.2847  0.2296  0.1828
    1W        W56602  24.211  17.278   6.827  0.0652 -0.0475 -0.0565
    1W        W56603  12.790   4.575   7.554  0.0063  0.2084 -0.0069
    1W        W56604   5.820   0.435   8.758  0.1215 -0.2148 -0.1310
    1W        W56605  29.144   3.330   7.664  0.1480  0.3557  0.2895
    1W        W56606  14.578   3.453   8.740 -0.1751 -0.1593  0.0048
    1W        W56607   1.749  27.578   8.726  0.1427  0.0590  0.1418
    1W        W56608   7.213   0.123   8.990  0.0114  0.1077 -0.0477
    1W        W56609   3.132  10.970   2.055 -0.0708  0.1105  0.3414
    1W        W56610  25.115  12.260   1.334 -0.2367  0.2433 -0.2280
    1W        W56611  25.724   2.237   3.064 -0.1762  0.1022  0.1068
    1W        W56612  28.410  14.064   6.418 -0.0495  0.1662  0.3183
    1W        W56613   1.957  11.174   1.516 -0.1561 -0.0166 -0.2188
    1W        W56614   8.655  25.974   6.539  0.1378  0.0554  0.1295
    1W        W56615  14.762  30.191   1.632 -0.3748  0.1532  0.0370
    1W        W56616   7.401  10.717   0.697  0.3401  0.0812 -0.3153
    1W        W56617   0.035  17.707   0.687  0.0701 -0.1358 -0.1852
    1W        W56618  26.058   2.999   8.800  0.0897 -0.1139  0.0806
    1W        W56619  17.250  15.147   0.873  0.2559 -0.5713 -0.0957
    1W        W56620  27.411  13.331   7.218 -0.2190 -0.0117  0.0749
    1W        W56621  16.276  23.168   6.473 -0.0729 -0.2252  0.1268
    1W        W56622  27.391  18.752   7.747 -0.1145 -0.1557  0.2532
    1W        W56623  11.000   3.612   1.474 -0.0486  0.0294  0.1353
    1W        W56624  24.385   3.803   0.118  0.1930 -0.1162 -0.0272
    1W        W56625  26.083  14.162   8.902  0.0462  0.1517 -0.0163
    1W        W56626  21.134  29.189   0.081 -0.0421  0.3172 -0.0876
    1W        W56627  21.629   1.800   1.139  0.0343  0.1365 -0.3741
    1W        W56628  15.078  26.074   8.804  0.0796 -0.2420  0.2396
    1W        W56629  13.516  19.272   5.842 -0.0185 -0.0543 -0.4126
    1W        W56630  22.492  26.188   2.727  0.1025 -0.0993  0.2958
    1W        W56631  28.283  22.914   1.566 -0.2589 -0.0024 -0.0553
    1W        W56632  21.187   0.851   6.639  0.1077  0.1277 -0.0081
    1W        W56633  26.419   9.528   8.318  0.2958  0.0323 -0.3275
    1W        W56634   1.930  12.911   8.199  0.0886  0.0653  0.0928
    1W        W56635  14.484  22.904   8.183 -0.0395  0.1194  0.2776
    1W        W56636  15.642   1.649   8.014  0.2093  0.1919 -0.1433
    1W        W56637  12.965   4.132   7.891  0.3496 -0.2900 -0.1018
    1W        W56638  20.220  23.849   1.706  0.0720  0.1112 -0.0852
    1W        W56639  26.947   5.905   9.069 -0.1278 -0.0199  0.1911
    1W        W56640  14.526  26.766   7.481  0.0478  0.1893  0.0294
    1W        W56641   7.443  25.773   2.789  0.0457 -0.1097  0.0591
    1W        W56642   0.878  17.320   7.006 -0.2298  0.2848 -0.0097
    1W        W56643  30.286  26.111   8.590  0.1186 -0.0589 -0.0295
    1W        W56644   3.148  14.822   0.917  0.1592 -0.2808 -0.3902
    1W        W56645  29.918  15.027   1.221  0.0850  0.1968 -0.2976
    1W        W56646  12.396  14.484   2.444 -0.3201 -0.0574  0.1918
    1W        W56647   1.813  22.602   1.627  0.0129 -0.1035 -0.0677
    1W        W56648  11.677  24.474   8.612  0.1863 -0.1786  0.2434
    1W        W56649  15.322  11.851   7.206 -0.0027 -0.0177 -0.1277
    1W        W56650  10.884  15.342   8.163  0.1718  0.1075 -0.1327
    1W        W56651   9.879   8.330   1.277 -0.3242  0.4397 -0.3860
    1W        W56652  24.419   2.211   2.709  0.0160  0.0835 -0.1473
    1W        W56653   4.000   7.094   8.047 -0.0173 -0.3457 -0.0948
    1W        W56654   8.744   8.706   8.646 -0.1457  0.2190  0.0524
    1W        W56655  25.067   0.431   2.953  0.0116  0.1634  0.0413
    1W        W56656  11.785  26.665   2.423 -0.2719  0.4807 -0.0819
    1W        W56657   5.699   1.270   1.059  0.0698  0.0901 -0.1807
    1W        W56658  10.375  15.383   6.834 -0.3068 -0.4644  0.1700
    1W        W56659   8.930  30.263   2.836  0.3963 -0.0305 -0.1119
    1W        W56660   8.109  23.405   0.077 -0.0279 -0.0702  0.0295
    1W        W56661   8.298  19.848   6.306 -0.0226  0.2688 -0.0040
    1W        W56662  12.475   6.618   9.184  0.0805 -0.0740  0.0498
    1W        W56663  16.487  18.608   7.269  0.0942  0.3789 -0.2150
    1W        W56664  23.426  24.586   8.078 -0.3217 -0.2437  0.0474
    1W        W56665  11.863   1.051   1.632  0.0960 -0.0147 -0.0330
    1W        W56666  13.140  28.395   0.309 -0.0410  0.0425 -0.0356
    1W        W56667   8.302   2.989   8.433  0.0014  0.1135  0.2041
    1W        W56668   1.672  17.076   8.553 -0.0018 -0.1616 -0.2425
    1W        W56669  28.841  25.157   2.213  0.0566  0.3327 -0.1932
    1W        W56670   4.663   5.778   2.560 -0.2331 -0.0952 -0.1208
    1W        W56671  18.643  27.570   1.490  0.0612 -0.0814 -0.0019
    1W        W56672  12.183  23.138   1.143 -0.0767 -0.1170 -0.0138
    1W        W56673   3.948   1.642   2.904  0.1525 -0.3755  0.0381
    1W        W56674   2.380  30.216   1.455 -0.1330 -0.2436 -0.2721
    1W        W56675   5.431   3.869   0.980 -0.0665 -0.0811  0.0060
    1W        W56676  19.972  22.926   7.576  0.0067 -0.1043  0.1844
    1W        W56677  28.216  19.061   7.526  0.0567  0.1558 -0.0236
    1W        W56678  14.142  22.692   2.390  0.0640  0.1012  0.0779
    1W        W56679  19.594  19.489   5.538  0.0771  0.0987 -0.0190
    1W        W56680  19.861  18.027   0.720  0.1175  0.1516 -0.0896
    1W        W56681  11.920  23.848   1.942 -0.0221 -0.3148 -0.2289
    1W        W56682  27.237  13.079   6.459 -0.2988  0.1093  0.1501
    1W        W56683  17.639  19.023   8.374 -0.2538  0.2421  0.2522
    1W        W56684  26.362  12.863   7.059  0.1138 -0.2156 -0.0135
    1W        W56685   1.422   8.397   0.972  0.2547 -0.0069  0.1286
    1W        W56686  21.738   8.751   6.510 -0.1188  0.1358  0.3959
    1W        W56687  27.849   6.259   0.137 -0.2173  0.0563  0.0923
    1W        W56688  29.622   1.874   1.943 -0.1382  0.0747  0.1810
    1W        W56689   8.904   3.633   0.997 -0.0894  0.2621 -0.0629
    1W        W56690  16.504  10.175   6.984  0.2613 -0.4442 -0.1847
    1W        W56691  27.619  22.656   8.616  0.0300  0.1545  0.2160
    1W        W56692  12.341   8.300   2.234  0.1146 -0.2851 -0.0821
    1W        W56693   0.521  22.580   0.964  0.0403 -0.1114  0.2544
    1W        W56694   5.126  25.855   2.534  0.2708 -0.1460 -0.0562
    1W        W56695  29.089  29.648   7.614  0.1219  0.0830  0.3087
    1W        W56696   2.057   2.091   7.868  0.1248 -0.1534  0.0187
    1W        W56697   8.577   7.365   9.113 -0.3342  0.3067 -0.1410
    1W        W56698   5.076   5.769   7.975  0.1657 -0.0171  0.3307
    1W        W56699   0.563   8.705   8.451 -0.0620  0.2349  0.1370
    1W        W56700  16.484  29.381   7.235  0.0608  0.0888  0.1034
    1W        W56701  14.789  16.735   0.935  0.0476 -0.1698 -0.1623
    1W        W56702  18.172  12.936   7.647 -0.0375 -0.1713  0.0859
    1W        W56703  24.648   6.608   8.047  0.1341  0.0630 -0.0822
    1W        W56704  28.528  19.536   0.353  0.1257 -0.0227  0.1019
    1W        W56705  11.714   6.163   0.922 -0.3431 -0.1363 -0.2978
    1W        W56706  22.991  20.130   1.367 -0.2425  0.2334 -0.2485
    1W        W56707  15.318  16.850   6.429  0.0303  0.0368  0.2147
    1W        W56708   8.332  18.830   7.171 -0.3848 -0.0856  0.0282
    1W        W56709  24.906  29.669   7.655  0.1357 -0.4513  0.0572
    1W        W56710  18.073  22.570   8.652  0.3616 -0.4549  0.2710
    1W        W56711  26.875  11.815   0.084 -0.3287  0.1036  0.0139
    1W        W56712  25.559   3.842   0.590 -0.1120  0.1439  0.3154
    1W        W56713  23.248  11.430   1.042 -0.2256 -0.2013 -0.3759
    1W        W56714  23.378   2.555   9.028 -0.3179  0.1973 -0.1830
    1W        W56715   9.846  15.010   7.281 -0.3480  0.0640 -0.3044
    1W        W56716  12.182   7.413   9.216  0.4181  0.0444 -0.1019
    1W        W56717  26.363  28.879   1.418  0.3182 -0.0252 -0.0044
    1W        W56718  19.159   8.302   1.433  0.3371 -0.2754 -0.1286
    1W        W56719  17.095  28.340   7.786  0.0117  0.3845 -0.3495
    1W        W56720   8.626  17.836   1.063  0.3801  0.1845  0.4587
    1W        W56721  10.218  10.536   1.850  0.1571 -0.0747 -0.0686
    1W        W56722   8.583  16.058   7.157 -0.0065 -0.1239  0.3306
    1W        W56723   3.573   3.531   1.239 -0.2300  0.1254 -0.2264
    1W        W56724  28.888  19.698   7.577  0.0065  0.2444 -0.2639
    1W        W56725  12.907   3.388   6.705 -0.0424 -0.0538 -0.0574
    1W        W56726   5.627  17.796   5.783 -0.1134 -0.0237  0.1718
    1W        W56727  11.106  25.451   6.956 -0.5554  0.1069 -0.0178
    1W        W56728   2.183  30.055   8.783 -0.1314  0.1105 -0.0071
    1W        W56729  16.154   6.694   6.412  0.2293  0.1466  0.0525
    1W        W56730  17.459  21.852   1.571 -0.1912  0.0713  0.3596
    1W        W56731  14.054  18.851   0.276  0.0232 -0.1104  0.1780
    1W        W56732  29.637   8.135   2.017  0.1170  0.0036 -0.4639
    1W        W56733  23.532   9.155   7.510 -0.0343 -0.0741 -0.1341
    1W        W56734   0.614  24.943   9.093 -0.0001  0.1424  0.1420
    1W        W56735  14.334   5.136   0.622  0.2441 -0.1680 -0.1039
    1W        W56736   1.285  29.156   7.980  0.2343  0.3154 -0.0233
    1W        W56737  15.902  21.498   2.229  0.0406 -0.1173  0.1723
    1W        W56738   7.287  21.908   0.747 -0.2326  0.2729  0.1670
    1W        W56739   0.177  26.104   7.453 -0.0263 -0.2144  0.1611
    1W        W56740  29.875  23.901   9.081 -0.0426  0.1212  0.1960
    1W        W56741  13.936   9.871   2.970 -0.3989 -0.1745 -0.2628
    1W        W56742  27.710   7.794   7.848  0.3715  0.4034  0.0619
    1W        W56743   0.370  19.788   0.329 -0.1327  0.2649  0.1364
    1W        W56744   4.712  14.405   1.297 -0.1196  0.2867 -0.1428
    1W        W56745  16.213  17.648   5.640 -0.1941  0.1720 -0.0239
    1W        W56746   2.694  20.824   8.215  0.0782  0.1437 -0.0895
    1W        W56747   3.560   8.437   0.440  0.1178  0.3183 -0.4915
    1W        W56748  24.234   4.786   8.491 -0.0110 -0.0480 -0.0605
    1W        W56749  29.858  21.633   8.469 -0.1835 -0.3384 -0.4890
    1W        W56750  17.552   3.348   8.458 -0.3445 -0.2090  0.0113
    1W        W56751  22.505  18.612   8.853  0.1028  0.1604  0.1573
    1W        W56752  14.107   8.003   1.850 -0.1638 -0.4356  0.0225
    1W        W56753   5.648  28.376   0.623  0.2850  0.0824 -0.2076
    1W        W56754  26.130  18.705   6.556 -0.0547 -0.4273 -0.3793
    1W        W56755  16.598  23.343   7.398 -0.0229  0.2414  0.1483
    1W        W56756  16.698   8.376   9.235  0.1466  0.3676  0.0037
    1W        W56757  17.069  16.899   8.781  0.2523 -0.1511 -0.2333
    1W        W56758  12.278  15.639   2.389 -0.0247  0.0167  0.1357
    1W        W56759  13.630  29.051   6.286 -0.1537 -0.1621  0.0538
    1W        W56760   7.660  24.515   8.825 -0.1427 -0.0382  0.1000
    1W        W56761  10.246  19.042   8.129  0.0682 -0.0770  0.1303
    1W        W56762  26.049  20.727   0.032  0.2213  0.1008 -0.0985
    1W        W56763  10.589  16.884   1.017 -0.2688 -0.0685 -0.2059
    1W        W56764   5.735   8.910   8.327 -0.0765 -0.4017 -0.1301
    1W        W56765  10.859   0.127   3.005  0.0244 -0.0196 -0.2078
    1W        W56766  22.180  28.345   2.347  0.2730 -0.0598 -0.0436
    1W        W56767  24.996  12.063   8.489 -0.0488  0.0890 -0.2234
    1W        W56768  30.283  18.540   0.067 -0.1585  0.1452 -0.4848
    1W        W56769   2.055  10.701   7.173  0.1487 -0.1527  0.0878
    1W        W56770  22.869  12.140   7.973  0.0964  0.1170  0.0441
    1W        W56771  26.269  20.127   0.450  0.2103  0.2168 -0.1200
    1W        W56772  16.137   1.177   1.567  0.0767  0.1742  0.2029
    1W        W56773  14.367   3.801   2.097 -0.0661 -0.0022 -0.0028
    1W        W56774  24.180  14.109   8.062 -0.0067 -0.0806 -0.0955
    1W        W56775  15.785   5.332   8.312 -0.0163  0.0140 -0.0421
    1W        W56776  22.084  14.882   1.206 -0.0743 -0.0222 -0.2466
    1W        W56777   9.175   0.170   7.933  0.0081 -0.2166 -0.3333
    1W        W56778  16.414  29.633   2.347  0.3951  0.1123 -0.0851
    1W        W56779  25.387   3.592   2.477  0.2739  0.0489 -0.0938
    1W        W56780  24.449   8.139   6.239  0.0510 -0.2607  0.1436
    1W        W56781  29.519  19.408   9.203  0.3767 -0.1050 -0.4042
    1W        W56782  22.015   6.011   0.562  0.2072 -0.4176 -0.0261
    1W        W56783  16.244   8.777   2.304  0.1818  0.1530  0.2112
    1W        W56784   5.945   0.793   3.130  0.1155 -0.0394 -0.0754
    1W        W56785   0.995  14.900   7.643 -0.2409  0.0456 -0.1098
    1W        W56786  25.246   2.314   8.605 -0.2872 -0.1601 -0.0238
    1W        W56787   8.417  21.761   1.893  0.3318 -0.1122 -0.0739
    1W        W56788   6.639  18.223   8.762  0.0625  0.0834 -0.1511
    1W        W56789  28.067  27.932   3.751  0.1909  0.0514 -0.0093
    1W        W56790   2.888  12.020   8.303  0.1494 -0.3860  0.0138
    1W        W56791  26.224  22.911   0.479 -0.1637  0.2955 -0.1749
    1W        W56792   4.938   1.271   7.706 -0.0728 -0.0933  0.0131
    1W        W56793   3.598  21.282   0.196  0.1673  0.3037  0.2411
    1W        W56794  25.723  25.144   2.433  0.1475  0.0127 -0.0552
    1W        W56795  12.118  17.565   0.262  0.1297 -0.0132 -0.1646
    1W        W56796  15.036   3.513   2.045  0.0210  0.1571  0.2732
    1W        W56797   2.340   8.183   6.666  0.3136 -0.1231  0.1861
    1W        W56798  25.679  23.925   0.810  0.0386  0.1355 -0.2983
    1W        W56799   3.400   4.359   8.512 -0.3055 -0.0022  0.0334
    1W        W56800   6.375  26.236   3.002  0.0373  0.0155 -0.2404
    1W        W56801  29.996   5.551   1.203 -0.2340  0.3387 -0.0559
    1W        W56802  29.660  22.503   0.347  0.2863  0.0366 -0.1533
    1W        W56803  13.026  10.734   2.643  0.1803  0.1418  0.5030
    1W        W56804  26.637  28.563   1.731 -0.1493 -0.0782 -0.0596
    1W        W56805  15.510  17.959   9.102 -0.1695  0.1461  0.1917
    1W        W56806   9.133  16.940   7.905 -0.0183 -0.0676 -0.1850
    1W        W56807  15.168   9.281   2.657  0.0418  0.1533 -0.0831
    1W        W56808  25.438   7.516   6.370 -0.1139  0.0622  0.1000
    1W        W56809  19.380  11.841   7.867 -0.0093 -0.1230  0.0792
    1W        W56810   2.173   8.930   1.907  0.1975  0.0361 -0.2306
    1W        W56811  20.698   4.846   9.179  0.2082  0.3674 -0.1024
    1W        W56812  27.050  18.010   0.079 -0.1849  0.0169  0.2459
    1W        W56813  30.258  27.307   6.998 -0.3254 -0.2541 -0.0480
    1W        W56814  30.293  26.864   7.206 -0.0630 -0.2842  0.3826
    1W        W56815  10.707  18.684   8.103 -0.3313  0.1393  0.2427
    1W        W56816   4.232   1.296   1.407 -0.1638 -0.0115  0.0630
    1W        W56817  16.655  19.109   6.683 -0.1476  0.0936  0.4299
    1W        W56818   3.856  29.169   7.600  0.1855 -0.1884  0.0552
    1W        W56819   0.155  22.583   0.248  0.1736 -0.1007 -0.3151
    1W        W56820  21.156  16.818   7.502  0.0109  0.0754  0.0836
    1W        W56821  12.657  28.938   1.610 -0.0559  0.4179  0.0715
    1W        W56822  14.677   3.144   3.233  0.1410 -0.0200  0.0009
    1W        W56823  16.167  24.168   8.630  0.0049 -0.2957  0.0761
    1W        W56824  29.465  26.453   0.933 -0.1078 -0.4563  0.1391
    1W        W56825   5.031   2.226   1.954 -0.3973  0.2628 -0.1086
    1W        W56826  27.802  20.153   6.172 -0.0909  0.1184  0.0585
    1W        W56827  19.577  22.177   1.572 -0.0147  0.2095 -0.1866
    1W        W56828  23.868  21.469   8.851 -0.2802  0.2703  0.2000
    1W        W56829  26.163  23.491   7.222 -0.3144  0.0599  0.2676
    1W        W56830   0.469  14.920   0.193  0.0392  0.1393 -0.1824
    1W        W56831  27.858  22.655   1.557  0.0670 -0.1361  0.2366
    1W        W56832  27.088   4.243   0.385  0.1853 -0.0446  0.2885
    1W        W56833   4.360  26.299   2.953 -0.3618  0.1480 -0.0577
    1W        W56834  25.027  29.303   0.566  0.1377 -0.2383  0.0615
    1W        W56835  27.945  13.318   8.895  0.1810  0.2808  0.3042
    1W        W56836  28.771  23.621   8.777 -0.5212 -0.1993 -0.3815
    1W        W56837  18.825  26.752   1.769  0.1838 -0.0599 -0.1121
    1W        W56838   5.615  25.870   2.417 -0.2408  0.2224 -0.2111
    1W        W56839   6.909   4.941   1.199 -0.0880  0.1415  0.1366
    1W        W56840  18.690  13.480   0.891  0.0229 -0.1448 -0.0679
    1W        W56841  11.226  28.323   2.466  0.1822 -0.2118  0.2474
    1W        W56842  23.611  25.355   0.758  0.1271  0.2894  0.2697
    1W        W56843  26.365  29.324   8.771 -0.1530  0.2140 -0.1943
    1W        W56844   8.425  21.999   7.982 -0.1032 -0.0092  0.0870
    1W        W56845  10.220   1.633   1.712 -0.0775  0.3124  0.1521
    1W        W56846   8.392   5.079   0.746 -0.1455  0.0600 -0.1465
    1W        W56847  15.285   4.115   7.120  0.0842 -0.0438  0.0632
    1W        W56848   8.007  28.979   7.735 -0.0207 -0.0690  0.0905
    1W        W56849  17.832  22.066   8.947  0.0151 -0.1977  0.0271
    1W        W56850   2.026   8.488   8.767 -0.1735 -0.0086  0.1325
    1W        W56851   7.283  19.482   1.250 -0.1180  0.1984 -0.0679
    1W        W56852  26.197  17.607   0.947  0.1832 -0.1385 -0.1980
    1W        W56853   2.678   7.036   0.848 -0.1507  0.1654  0.0416
    1W        W56854  25.395  16.738   1.506  0.0276 -0.0607 -0.0783
    1W        W56855  12.059   3.917   1.153  0.0700 -0.0466 -0.1797
    1W        W56856  17.101   9.102   7.283  0.2913 -0.0069  0.2784
    1W        W56857  10.062   5.246   0.385  0.0846  0.0695 -0.2483
    1W        W56858   9.990  19.494   6.867  0.2190 -0.2502 -0.2564
    1W        W56859   8.172   3.402   6.497  0.1913  0.1413  0.1760
    1W        W56860  19.867  28.368   0.068  0.1950 -0.0253 -0.3765
    1W        W56861   4.748  22.074   7.985 -0.2365 -0.2980 -0.0693
    1W        W56862   0.452  22.441   8.478 -0.0502 -0.1745  0.0748
    1W        W56863  28.411  17.177   6.798  0.1535  0.0757  0.2899
    1W        W56864  24.337  19.160   6.332  0.1476  0.0210 -0.1179
    1W        W56865  12.591  30.188   0.465  0.2288  0.1120  0.1954
    1W        W56866  25.305  16.351   8.649  0.1225 -0.1005 -0.3150
    1W        W56867  14.146  25.589   1.275  0.1690  0.1929 -0.0993
    1W        W56868  11.039  25.216   0.578  0.2961 -0.1038 -0.1677
    1W        W56869  25.935  20.194   0.054  0.4168 -0.4141  0.1265
    1W        W56870   2.285   7.664   2.052 -0.1437 -0.0501 -0.1521
    1W        W56871  22.387  24.950   1.742  0.0025  0.2488  0.1395
    1W        W56872  26.685  29.612   7.890 -0.1087 -0.1529  0.1346
    1W        W56873  20.280  21.570   2.303  0.0857  0.1570  0.0509
    1W        W56874   1.232   2.556   1.210 -0.2137  0.1858 -0.1198
    1W        W56875  15.250  23.988   1.986  0.0972  0.0115  0.1133
    1W        W56876  15.356  10.823   8.568  0.0924 -0.3090 -0.0044
    1W        W56877  26.609   2.233   0.687  0.3296  0.0461  0.2172
    1W        W56878  22.349  15.417   2.009 -0.2999 -0.1737  0.1153
    1W        W56879  26.786  26.963   8.087  0.0506  0.0858  0.0298
    1W        W56880  20.138  19.426   6.603 -0.1762  0.3099  0.3907
    1W        W56881   0.058  27.412   1.717  0.1863 -0.1228  0.1203
    1W        W56882   4.763  14.734   8.587  0.3241 -0.3836 -0.0891
    1W        W56883  25.671   3.389   2.037  0.0139 -0.0190  0.2607
    1W        W56884  10.307  22.736   9.078 -0.3358 -0.2171  0.1272
    1W        W56885  14.503  14.552   2.523  0.0686  0.3442  0.0838
    1W        W56886   0.430  12.083   1.813  0.0950 -0.2364 -0.1816
    1W        W56887   7.149  26.889   6.961 -0.0850  0.2222  0.0186
    1W        W56888   2.765   3.628   6.360  0.1924 -0.1065 -0.0418
    1W        W56889  26.743   0.086   7.393  0.1483  0.0114 -0.0331
    1W        W56890  27.044  20.573   7.102  0.0115  0.0560  0.0732
    1W        W56891  16.289  24.703   8.682 -0.0091  0.0566 -0.0509
    1W        W56892  25.259   3.938   7.177  0.0543 -0.1183  0.0348
    1W        W56893  24.375  27.314   8.366 -0.1815 -0.0708 -0.1443
    1W        W56894  21.688   0.868   2.886 -0.0388 -0.2432  0.0224
    1W        W56895   9.664  27.273   8.745 -0.1562  0.0493  0.2489
    1W        W56896  10.670  17.924   2.741  0.1864 -0.1472 -0.0416
    1W        W56897  16.801  12.306   1.433  0.1447 -0.0574 -0.0106
    1W        W56898  16.146  26.453   8.391 -0.0077 -0.1976 -0.1482
    1W        W56899  26.343  10.209   9.203  0.0778 -0.0374  0.0470
    1W        W56900  19.197  21.178   8.322 -0.1892 -0.0861 -0.2571
    1W        W56901   9.246  21.941   5.659 -0.0075  0.0154  0.2804
    1W        W56902  28.195  27.953   1.411  0.0955 -0.5071 -0.0829
    1W        W56903   4.164  15.556   1.330  0.0284  0.1054  0.0625
    1W        W56904   9.611   0.981   0.549  0.2373  0.1013  0.4657
    1W        W56905   2.752   3.366   1.403 -0.3001 -0.1282 -0.2018
    1W        W56906  21.614   6.832   9.092  0.1268 -0.0240 -0.2150
    1W        W56907   9.576  10.060   7.510 -0.0582  0.0423 -0.3386
    1W        W56908  15.559   2.979   8.996 -0.0257 -0.0107  0.0834
    1W        W56909  25.493   7.576   1.215  0.1476  0.0631  0.0052
    1W        W56910  13.373  20.616   7.585 -0.0434 -0.1344 -0.0266
    1W        W56911  10.745   9.209   0.839  0.0251  0.1496  0.1204
    1W        W56912  23.230   3.343   0.202 -0.0568 -0.2251  0.0992
    1W        W56913  27.732  23.983   8.860  0.1642  0.2397  0.0200
    1W        W56914  17.159  14.475   8.199 -0.2555  0.3610  0.0113
    1W        W56915  19.800  28.153   1.837  0.0307 -0.1094 -0.0284
    1W        W56916   7.767  24.914   0.227  0.0062  0.1525  0.2038
    1W        W56917  19.693  17.441   5.985 -0.1407  0.2019  0.0408
    1W        W56918  28.002  28.064   2.195  0.0944  0.0025  0.2079
    1W        W56919   6.067  20.513   5.803 -0.1153 -0.1586  0.0177
    1W        W56920  26.729   2.053   7.891 -0.0561 -0.1808 -0.2832
    1W        W56921  15.009  21.883   7.868 -0.1241 -0.0789 -0.1521
    1W        W56922   6.708  12.303   2.723  0.1260 -0.0117  0.1478
    1W        W56923  19.054   3.539   6.854 -0.1756 -0.2131  0.0406
    1W        W56924  25.021   6.923   0.490 -0.0638 -0.0332 -0.1571
    1W        W56925   8.330  28.033   0.845  0.0047 -0.1763 -0.1234
    1W        W56926  29.487  14.889   8.720 -0.1048 -0.1169  0.0464
    1W        W56927  18.731   6.370   7.060  0.0948  0.0631  0.0974
    1W        W56928  20.042  22.642   7.089 -0.0737  0.2098 -0.2092
    1W        W56929   7.964  29.337   8.160 -0.0953 -0.0397  0.1354
    1W        W56930  30.062  29.893   1.840  0.6057  0.0626 -0.2693
    1W        W56931  19.206  17.619   7.357 -0.2038 -0.0347  0.1216
    1W        W56932  22.788   2.326   2.793 -0.0366 -0.0869 -0.2560
    1W        W56933  16.029  14.076   1.636  0.2162 -0.0688  0.0597
    1W        W56934  13.473   5.505   9.181 -0.1378  0.1869 -0.1697
    1W        W56935  15.605  28.808   1.446  0.1234 -0.1512 -0.0426
    1W        W56936  19.275  23.261   1.718  0.0776 -0.0589  0.0316
    1W        W56937   4.340   0.800   8.470 -0.3372  0.1055  0.1947
    1W        W56938  29.979   9.196   1.454  0.3959 -0.2842  0.0642
    1W        W56939  10.034  12.788   2.291  0.0838 -0.1295 -0.0471
    1W        W56940  12.674   9.294   8.358  0.0970 -0.3730  0.1642
    1W        W56941  17.607  18.575   6.669 -0.3528 -0.0673 -0.2626
    1W        W56942  15.483   0.013   8.971 -0.1413  0.0247 -0.4651
    1W        W56943  20.527  21.513   5.816 -0.0292  0.1145 -0.0360
    1W        W56944  26.426  28.795   2.785 -0.0554  0.2216 -0.0225
    1W        W56945  14.036  22.388   6.063  0.0976 -0.0451  0.1436
    1W        W56946  16.444  11.100   2.515 -0.2201 -0.0907 -0.0160
    1W        W56947  10.031   2.597   2.620  0.2063 -0.0091 -0.1154
    1W        W56948  21.596  28.667   2.677  0.1905 -0.0467  0.0294
    1W        W56949   7.553  30.278   3.244 -0.1195  0.0725 -0.0621
    1W        W56950  11.023  29.104   1.093  0.0176  0.1228 -0.2267
    1W        W56951   4.827  21.078   7.843  0.1312 -0.1255 -0.2343
    1W        W56952  26.029  11.487   1.082 -0.2889 -0.0713  0.3816
    1W        W56953   1.438   6.331   1.675  0.2030 -0.1328 -0.0560
    1W        W56954  16.114   6.137   8.134 -0.0154 -0.0782 -0.0180
    1W        W56955   8.667   7.608   1.312  0.0010  0.1061 -0.1592
    1W        W56956  12.466   5.735   6.806 -0.1935 -0.2080  0.0841
    1W        W56957  17.008   4.143   1.167 -0.0104  0.1256  0.1486
    1W        W56958  10.737   8.552   7.015 -0.0691  0.1452 -0.1607
    1W        W56959  12.639  12.000   3.130  0.1653  0.0013  0.2055
    1W        W56960  16.381  30.282   8.781  0.0263  0.1873 -0.1121
    1W        W56961  14.137  21.875   1.685  0.0612 -0.2469  0.0337
    1W        W56962  29.782  15.974   8.614  0.3520  0.2644  0.1257
    1W        W56963  29.213  14.104   1.476 -0.0649  0.2143 -0.0732
    1W        W56964   9.532  17.500   2.117 -0.0664  0.5541  0.0986
    1W        W56965  27.606  24.920   8.987 -0.1682  0.0310 -0.0176
    1W        W56966  28.812  17.357   8.524 -0.2456  0.2906  0.2890
    1W        W56967  29.958   5.000   1.207 -0.1156 -0.0432  0.1014
    1W        W56968  26.275  27.521   8.651 -0.0433  0.4069  0.1575
    1W        W56969   4.695   7.143   6.901 -0.3000  0.0196 -0.4056
    1W        W56970  27.578  13.608   0.620  0.3081  0.1073  0.0815
    1W        W56971  11.112  17.992   8.470  0.2437 -0.1622 -0.2074
    1W        W56972  12.789  14.942   7.901 -0.0146 -0.0933  0.1531
    1W        W56973  17.534  27.605   1.485 -0.2338  0.0175  0.1709
    1W        W56974  28.986   8.872   2.538  0.1929 -0.1604 -0.2076
    1W        W56975  14.177  13.937   9.065 -0.0021  0.0661 -0.0293
    1W        W56976  27.152  13.442   6.840  0.0011 -0.0422  0.0230
    1W        W56977  28.070  28.853   0.582  0.1367 -0.0165  0.0321
    1W        W56978   6.847   6.673   6.979 -0.2126  0.1449 -0.4019
    1W        W56979  14.905   4.335   1.949  0.0529 -0.1361 -0.0808
    1W        W56980  18.174   5.778   2.015  0.3627  0.1923 -0.1059
    1W        W56981  22.208  26.313   1.578  0.1250  0.0135 -0.1113
    1W        W56982  18.054  22.532   0.501  0.0779  0.1256 -0.0985
    1W        W56983  29.917  29.679   8.605  0.1290  0.2813 -0.0037
    1W        W56984   6.871  17.823   9.061 -0.2312 -0.0604 -0.3168
    1W        W56985   2.571  17.412   8.273 -0.0641  0.3971 -0.2441
    1W        W56986   9.327  20.201   2.446  0.0470 -0.0527  0.1247
    1W        W56987  17.944   5.273   9.142  0.0285  0.2754 -0.0581
    1W        W56988  25.122  14.995   8.193 -0.0170  0.0555  0.1680
    1W        W56989  15.791   4.806   7.866  0.1682  0.3314  0.1057
    1W        W56990  28.400   9.505   7.506 -0.3436  0.0131  0.0496
    1W        W56991   5.983  23.602   1.256 -0.1474  0.3341 -0.4079
    1W        W56992  15.172  27.294   7.064  0.1378 -0.1918  0.0585
    1W        W56993  30.201  27.736   7.372 -0.2539  0.2629  0.3615
    1W        W56994   7.021  28.818   9.075 -0.2697  0.3718 -0.1304
    1W        W56995  29.730  25.467   9.080 -0.2336  0.3762 -0.2229
    1W        W56996   7.339  22.375   8.319  0.1038 -0.2975  0.0402
    1W        W56997  13.190  20.097   0.509 -0.6476 -0.0390  0.0789
    1W        W56998  13.837  15.416   1.909  0.1532 -0.1254 -0.1730
    1W        W56999  14.879   4.352   0.635 -0.1014  0.1845 -0.2726
    1W        W57000  21.652   4.895   3.196  0.0278  0.0218 -0.3851
    1W        W57001  11.028  17.858   0.996  0.0148  0.1374  0.4114
    1W        W57002  29.488  25.790   2.543 -0.3306  0.0721  0.1623
    1W        W57003  23.491  28.367   1.535  0.2258 -0.1019 -0.0685
    1W        W57004   9.010  13.235   7.901 -0.2248  0.4072 -0.0400
    1W        W57005  11.697   0.730   3.099  0.2624 -0.1740  0.0495
    1W        W57006  27.946   2.338   2.590  0.0417 -0.2432 -0.2206
    1W        W57007   7.899  21.838   0.497  0.0926  0.3762  0.0646
    1W        W57008  18.727  18.503   0.129  0.0149  0.1986 -0.0852
    1W        W57009  19.280  10.595   0.955  0.2760  0.0217 -0.0888
    1W        W57010  12.257   0.111   0.087  0.0222 -0.3090 -0.2278
    1W        W57011   5.677   4.690   1.860  0.3473  0.1027  0.3048
    1W        W57012  25.369   7.271   0.439 -0.2700 -0.2144 -0.1324
    1W        W57013   4.650  28.653   2.576 -0.3639 -0.2165 -0.2729
    1W        W57014   0.821  15.031   1.110  0.1183 -0.1227  0.0890
    1W        W57015   1.940  26.184   2.301 -0.3172 -0.0508 -0.0982
    1W        W57016  13.101   4.526   0.643  0.0806  0.1653  0.0118
    1W        W57017  14.039  23.511   0.125 -0.1260 -0.1910  0.1668
    1W        W57018  21.263  25.417   2.254 -0.3595  0.0447  0.0474
    1W        W57019  19.684  11.228   0.249 -0.3091 -0.0204 -0.2167
    1W        W57020   5.188   5.113   0.656 -0.4148  0.0291 -0.1302
    1W        W57021   7.705   8.457   2.864 -0.0206 -0.0930 -0.2878
    1W        W57022  13.264  11.043   1.062 -0.0596  0.0267  0.2470
    1W        W57023  19.722  23.150   0.717  0.0613  0.3184  0.1379
    1W        W57024  26.126   3.160   8.316  0.0622  0.0184  0.0351
    1W        W57025  13.558  22.493   8.841 -0.0858 -0.0589 -0.0656
    1W        W57026  23.918   8.771   7.563  0.2014 -0.3207 -0.1349
    1W        W57027  22.438   1.026   3.450 -0.0988 -0.0090  0.0055
    1W        W57028  17.994   1.493   7.632  0.1200  0.1639  0.0991
    1W        W57029   5.377  11.894   8.569 -0.1797 -0.1783 -0.0779
    1W        W57030  28.547  16.741   7.051  0.0651 -0.1603  0.0646
    1W        W57031  28.311  16.115   1.668  0.1985 -0.0668 -0.3055
    1W        W57032   2.512   8.595   8.842  0.0377 -0.1700 -0.0203
    1W        W57033  22.101  26.741   2.940  0.2035 -0.1901 -0.0603
    1W        W57034   9.815   5.254   8.394  0.0271  0.1810  0.4745
    1W        W57035  26.649   0.203   2.994 -0.0825 -0.1108 -0.2285
    1W        W57036  21.621   4.367   2.066  0.1925 -0.2008  0.2439
    1W        W57037  18.717  28.787   0.489  0.2447  0.0488 -0.1284
    1W        W57038   3.615   9.438   1.546  0.2228  0.0255 -0.0832
    1W        W57039   2.409  10.101   7.746  0.0033 -0.0036 -0.2570
    1W        W57040  15.724  21.807   5.941  0.2197 -0.0123 -0.0451
    1W        W57041  14.295  16.443   0.836 -0.1013  0.2006  0.0382
    1W        W57042  30.061  28.959   2.392 -0.1621 -0.0859 -0.1293
    1W        W57043   3.010   8.792   1.525 -0.1733 -0.0309  0.2276
    1W        W57044  17.194  21.098   6.746 -0.1631 -0.0796 -0.0603
    1W        W57045   3.285   3.554   7.576 -0.0524 -0.5072 -0.1132
    1W        W57046  27.063  24.088   1.301  0.0727  0.0350  0.1907
    1W        W57047   9.879   4.033   8.899  0.2088 -0.2104 -0.2418
    1W        W57048   6.589   7.141   2.287  0.0105 -0.3463  0.1561
    1W        W57049  22.482  25.438   6.927 -0.0502  0.1591  0.0984
    1W        W57050  12.713  20.698   9.117  0.1077 -0.1284  0.4985
    1W        W57051   9.970  15.671   8.910  0.0262  0.2143  0.4663
    1W        W57052  28.839  20.520   7.252  0.0847  0.0198 -0.1037
    1W        W57053  11.691  22.481   7.779 -0.1453 -0.0466  0.1402
    1W        W57054  22.469   5.396   3.149  0.2115  0.1580  0.1441
    1W        W57055  18.850   0.268   8.241  0.1485  0.0712 -0.1423
    1W        W57056  13.873   6.797   0.396 -0.0405  0.0760 -0.0579
    1W        W57057  23.188  27.319   1.337  0.3150 -0.1391  0.0758
    1W        W57058  19.714   5.800   7.804 -0.3077  0.2701  0.1025
    1W        W57059  10.455  23.597   1.883  0.1756  0.3281 -0.4409
    1W        W57060  13.770  15.710   8.230  0.1004  0.0280 -0.0891
    1W        W57061  18.523  14.641   0.398 -0.1830 -0.4598 -0.0471
    1W        W57062  26.840  24.349   2.746  0.2092 -0.0613  0.0390
    1W        W57063  23.349  18.642   0.999 -0.0321 -0.1134  0.3148
    1W        W57064   9.434  29.670   1.025 -0.1239  0.1332  0.0062
    1W        W57065   8.897  12.653   1.545  0.2011 -0.3327  0.0490
    1W        W57066  25.578   2.819   2.576  0.0516  0.3914 -0.2750
    1W        W57067   0.314  29.626   7.964  0.0140 -0.2257  0.0380
    1W        W57068  15.749  12.324   7.740  0.2132 -0.1725 -0.0730
    1W        W57069  16.256  12.258   8.299  0.1414 -0.2953 -0.4057
    1W        W57070   8.798  19.508   2.042 -0.0607  0.1228 -0.1787
    1W        W57071   8.332  10.464   2.376  0.1177 -0.2537 -0.1109
    1W        W57072   3.246  24.099   0.616 -0.1185  0.0510  0.0098
    1W        W57073  29.939   8.335   0.544 -0.4861 -0.1173  0.0960
    1W        W57074  18.500  18.990   0.172  0.0227 -0.0639 -0.2634
    1W        W57075  29.137  18.181   0.964  0.1596  0.0050 -0.2442
    1W        W57076  13.929  28.253   2.610 -0.0978 -0.1394  0.3583
    1W        W57077  27.317  10.384   2.506 -0.2523 -0.0009  0.0772
    1W        W57078   7.210  27.215   0.462 -0.2611 -0.0338  0.0428
    1W        W57079  10.231   2.170   1.629 -0.1581  0.0628  0.3359
    1W        W57080   1.261  28.899   8.542  0.2459  0.3814 -0.2979
    1W        W57081  22.969  13.932   6.291  0.1590  0.2172 -0.0366
    1W        W57082   4.739  10.234   7.778 -0.1392  0.1910 -0.1311
    1W        W57083   0.079  21.122   0.794  0.3922 -0.0479 -0.1257
    1W        W57084   5.080   1.161   7.122  0.2153 -0.2109 -0.2068
    1W        W57085  24.496  17.307   7.822 -0.0880 -0.1818 -0.0107
    1W        W57086  11.170  30.172   0.889 -0.0713 -0.0687  0.1755
    1W        W57087  18.286  16.246   7.864  0.0108 -0.0120 -0.3077
    1W        W57088   6.509  26.783   0.339 -0.0176 -0.3828  0.0938
    1W        W57089   5.665   5.499   2.621  0.2593 -0.0869 -0.5134
    1W        W57090  23.570   8.419   8.853  0.0698  0.1427  0.0055
    1W        W57091  18.011   5.041   0.673  0.1953 -0.0349 -0.1621
    1W        W57092  15.638   0.123   1.534 -0.1225  0.0027 -0.2941
    1W        W57093  20.970  25.425   1.111  0.0127  0.2983 -0.1832
    1W        W57094  17.199  14.315   2.629  0.4138  0.1498  0.0438
    1W        W57095   1.518  14.386   0.158  0.1090 -0.0153 -0.2741
    1W        W57096   3.231  12.852   7.488 -0.0558 -0.3314  0.3034
    1W        W57097  26.590   9.319   7.487  0.0480  0.4501 -0.2285
    1W        W57098   1.314  26.522   7.793 -0.1044 -0.1096  0.0211
    1W        W57099  15.614  16.690   6.791  0.0908 -0.1198  0.3593
    1W        W57100  24.047   3.582   3.756  0.0193 -0.0721 -0.2336
    1W        W57101   5.829  27.907   0.532  0.0244 -0.0296  0.3275
    1W        W57102  15.567   1.545   8.684 -0.1240  0.0851  0.0115
    1W        W57103   2.576  18.194   0.665 -0.2275  0.1392 -0.1289
    1W        W57104  23.070   9.183   7.693 -0.1159 -0.4262  0.0835
    1W        W57105  17.467  21.886   8.640  0.0404  0.0426  0.1213
    1W        W57106   2.902   7.386   9.191  0.1977  0.0878  0.0158
    1W        W57107   4.938  28.000   8.374 -0.4486  0.0159 -0.0541
    1W        W57108   4.262  20.023   6.439 -0.0833  0.1426 -0.0154
    1W        W57109  17.488   8.531   8.780  0.0172  0.5126 -0.2021
    1W        W57110   0.994  16.934   7.841  0.0077  0.2370 -0.0213
    1W        W57111  21.975  16.627   0.492 -0.1824 -0.4488  0.2083
    1W        W57112   1.114  29.226   8.899 -0.1312  0.6047 -0.3471
    1W        W57113  18.571  15.526   1.588 -0.2613 -0.1841 -0.2058
    1W        W57114  30.233   5.934   1.407  0.2316 -0.3021  0.0345
    1W        W57115  27.638  19.033   1.043 -0.1666  0.1217 -0.1378
    1W        W57116  11.736  17.638   8.075 -0.1045 -0.2154 -0.1456
    1W        W57117  20.592  16.798   7.564  0.1344  0.4914  0.0913
    1W        W57118   7.980  20.104   7.221 -0.0531  0.2356  0.2216
    1W        W57119  11.903   2.933   9.200  0.0927  0.1318 -0.0441
    1W        W57120  22.249  10.147   1.439  0.0571  0.2049  0.2096
    1W        W57121  27.130  26.025   6.831  0.1309 -0.0183  0.2825
    1W        W57122  20.140   2.545   8.341 -0.3083  0.0035  0.0876
    1W        W57123  13.363   2.536   6.631 -0.0360 -0.1246 -0.1033
    1W        W57124  28.334   2.818   1.495  0.0476 -0.0412 -0.2191
    1W        W57125  12.448  17.631   5.863  0.2171  0.5560  0.0770
    1W        W57126   8.443   0.701   2.530 -0.1126  0.2244  0.3567
    1W        W57127  22.259   8.467   9.116  0.2009  0.2007  0.1732
    1W        W57128  13.728  11.396   8.773  0.0536  0.0097 -0.0718
    1W        W57129  14.742  21.790   1.960  0.0701 -0.1380 -0.3406
    1W        W57130   9.787   6.188   1.917 -0.0493  0.1121 -0.5105
    1W        W57131   1.051  17.224   2.286  0.0150 -0.0553  0.1875
    1W        W57132  19.866  22.513   8.533  0.2804 -0.3883 -0.1279
    1W        W57133   2.921   9.184   1.232 -0.1017 -0.0795  0.0094
    1W        W57134  15.169  24.644   1.643 -0.0218  0.4038  0.1689
    1W        W57135   6.618   5.359   2.264 -0.0323 -0.0047  0.0607
    1W        W57136  18.297  17.663   2.167 -0.0711  0.1184 -0.1180
    1W        W57137  12.370  10.273   1.483 -0.3853 -0.3032  0.0338
    1W        W57138  20.123  19.651   7.551  0.0635  0.0103 -0.1745
    1W        W57139  26.150  12.384   1.250  0.2476 -0.3102  0.1996
    1W        W57140   6.027  17.119   6.888  0.3477  0.0607 -0.1700
    1W        W57141  22.095   5.900   8.660  0.2297  0.0095 -0.0285
    1W        W57142  10.271   5.990   8.663 -0.3983  0.1590  0.2498
    1W        W57143   9.044  26.761   1.531 -0.0068  0.2612  0.3492
    1W        W57144  26.721  27.690   1.599  0.0031  0.1505 -0.0917
    1W        W57145  30.280   3.103   3.825  0.1248 -0.1592 -0.1825
    1W        W57146   6.172  21.237   9.083  0.0314 -0.1010  0.0700
    1W        W57147  14.853   3.900   6.481 -0.0212  0.1897 -0.0641
    1W        W57148  20.462   2.961   1.625  0.0617 -0.1600  0.0189
    1W        W57149  13.516  19.900   8.404 -0.5098 -0.1095  0.1521
    1W        W57150  17.727  26.971   6.436 -0.1566 -0.0076 -0.1034
    1W        W57151   8.969   3.883   8.858 -0.1057 -0.0864  0.3479
    1W        W57152  24.757  22.121   8.097 -0.1080  0.0323 -0.0477
    1W        W57153  26.218  25.519   1.800 -0.1027  0.1835 -0.0052
    1W        W57154  23.944  25.779   2.514 -0.0679  0.0685  0.0059
    1W        W57155  29.985  16.920   0.963  0.1188 -0.0155 -0.1607
    1W        W57156  25.574   0.316   0.700 -0.0438  0.1470  0.0128
    1W        W57157   7.643  21.153   6.500  0.0707 -0.2816  0.1163
    1W        W57158  15.303  24.630   8.798  0.3553 -0.0112  0.3028
    1W        W57159   4.352  26.969   0.001  0.1887  0.0401 -0.1567
    1W        W57160   5.353  25.506   0.733 -0.0891  0.0931 -0.3728
    1W        W57161   2.659  15.012   0.905 -0.0754  0.3290 -0.1569
    1W        W57162  28.247  20.351   7.700 -0.1244  0.1395 -0.0729
    1W        W57163  19.759  19.319   7.817 -0.0040  0.1116 -0.1033
    1W        W57164  12.726  25.659   0.495 -0.0618  0.2514 -0.2610
    1W        W57165  20.415  13.803   9.158 -0.1439 -0.1323 -0.0240
    1W        W57166   7.824  19.091   8.396  0.0362 -0.1834 -0.0316
    1W        W57167  26.879   7.616   8.116  0.0175  0.1211  0.0804
    1W        W57168  22.387   8.558   1.438 -0.2367  0.0444 -0.1479
    1W        W57169   8.515  13.141   7.721 -0.0551 -0.1117  0.2229
    1W        W57170   0.920   1.817   2.931 -0.0220  0.0261 -0.2788
    1W        W57171  21.166  12.701   2.098  0.0020 -0.0107  0.2122
    1W        W57172  23.493   9.207   1.730  0.0047 -0.2638  0.0208
    1W        W57173  13.363  22.858   7.890 -0.0863  0.0854  0.0867
    1W        W57174  25.965   0.758   7.671  0.2044 -0.2691  0.0066
    1W        W57175  20.908  15.671   5.708  0.1417  0.0921 -0.2713
    1W        W57176  18.788  10.703   0.876 -0.1907  0.0384  0.0806
    1W        W57177  25.405  10.503   7.419  0.1692  0.0417 -0.2598
    1W        W57178   6.873   2.049   8.363  0.3679 -0.4367  0.3237
    1W        W57179  19.153   7.472   1.309  0.0143  0.0268  0.1135
    1W        W57180  13.977  18.473   1.855  0.0559  0.0848  0.2151
    1W        W57181  29.377   4.160   8.445  0.0379  0.1418 -0.1313
    1W        W57182  14.302  25.986   8.948  0.0346  0.2175 -0.0188
    1W        W57183  22.418  24.887   7.214 -0.1795  0.0385 -0.1130
    1W        W57184  11.321  22.240   6.990 -0.1405 -0.0421  0.0094
    1W        W57185   6.362   7.417   8.382 -0.0776 -0.0049  0.1569
    1W        W57186  14.905  24.062   0.847  0.1942  0.0373  0.0243
    1W        W57187   7.073   1.392   8.689  0.2089 -0.1432  0.0201
    1W        W57188  24.522  20.024   1.111  0.0925  0.2457  0.0336
    1W        W57189  25.225  13.499   1.747 -0.4673  0.1806 -0.2079
    1W        W57190  17.444  15.413   8.304  0.0805  0.3055 -0.0509
    1W        W57191  19.822  17.784   6.684  0.0212 -0.1925 -0.1435
    1W        W57192  21.881  15.236   7.372  0.0285  0.2109 -0.2964
    1W        W57193  26.722  19.401   7.698 -0.0600 -0.2100 -0.0230
    1W        W57194  24.960  28.159   0.342  0.0793 -0.1752  0.2220
    1W        W57195  18.637   1.448   2.674 -0.1016 -0.0460 -0.1103
    1W        W57196   1.109  23.122   8.610  0.0280  0.1693  0.1930
    1W        W57197  10.217   3.335   1.556  0.0458  0.0898  0.0253
    1W        W57198   3.077   2.689   7.420  0.0681  0.0248 -0.0054
    1W        W57199  26.532  20.342   7.298 -0.0866  0.0740 -0.0066
    1W        W57200  19.154  19.042   6.722  0.0269 -0.1241  0.0269
    1W        W57201  28.519   6.199   1.159 -0.1284  0.0411 -0.1513
    1W        W57202   3.279   1.941   7.456  0.0139 -0.0509  0.2411
    1W        W57203  18.343  16.918   0.832 -0.2728  0.1888 -0.3283
    1W        W57204  17.098  13.000   3.245 -0.2280 -0.1668 -0.1720
    1W        W57205   8.785  17.984   7.554 -0.0814 -0.0361 -0.0167
    1W        W57206  17.517   8.775   7.168  0.0983  0.0272  0.0950
    1W        W57207   3.224  10.970   6.981  0.0408  0.0202 -0.1911
    1W        W57208   3.481  16.755   6.771  0.0036 -0.1276 -0.1559
    1W        W57209  14.047  14.203   7.781  0.0520  0.0462  0.2938
    1W        W57210  27.757   2.486   7.592  0.0953 -0.2898  0.1659
    1W        W57211  23.331   5.590   9.031  0.1228  0.1052  0.1923
    1W        W57212  30.284  29.715   1.414  0.1959 -0.1847  0.1776
    1W        W57213  17.450   8.492   1.987  0.1725 -0.3641  0.2487
    1W        W57214   1.447  29.975   7.461 -0.0717 -0.0017  0.1383
    1W        W57215  25.288  17.305   7.430  0.1002 -0.2952 -0.0287
    1W        W57216  21.918   7.825   9.238 -0.3718  0.0541 -0.0937
    1W        W57217  16.368  22.390   0.966 -0.1515  0.1758  0.0382
    1W        W57218   3.909   8.592   1.957  0.0824  0.0710  0.0137
    1W        W57219  18.714  16.292   7.597 -0.3390 -0.1936 -0.1918
    1W        W57220  23.098   4.285   8.149 -0.0765 -0.0647 -0.0431
    1W        W57221  17.611  12.196   7.861  0.0336  0.1341  0.0033
    1W        W57222  10.242  20.891   8.077 -0.2232  0.3690 -0.1300
    1W        W57223  15.128  24.586   6.614 -0.0509  0.0654  0.0711
    1W        W57224  23.709   6.736   0.272  0.1948 -0.0264  0.1387
    1W        W57225  30.354  24.570   1.454 -0.2013 -0.0560  0.2264
    1W        W57226  27.735  26.174   2.984 -0.1522  0.0399 -0.1659
    1W        W57227   3.137   3.010   2.371 -0.1135 -0.2295 -0.0063
    1W        W57228  12.657  13.920   8.679 -0.0046  0.1529  0.0001
    1W        W57229  20.938  22.197   6.077 -0.0303  0.2454 -0.1709
    1W        W57230   6.682   2.337   1.816 -0.5564 -0.0777  0.0043
    1W        W57231  22.997  19.124   7.222  0.0101 -0.0331 -0.1144
    1W        W57232  29.148  17.669   7.403  0.2311  0.0061  0.0014
    1W        W57233  22.258  21.092   2.053 -0.0914 -0.3224 -0.0885
    1W        W57234  20.042   1.267   1.811  0.1238  0.1473 -0.1027
    1W        W57235  14.988   9.207   9.016 -0.0221  0.0325  0.1172
    1W        W57236  21.796   1.652   7.313  0.1344  0.0150  0.0680
    1W        W57237  28.025  14.240   9.155 -0.0742 -0.1410 -0.0290
    1W        W57238  24.123  23.646   8.594  0.3274 -0.1421  0.1525
    1W        W57239   6.715  11.470   8.999  0.0951  0.1714 -0.2232
    1W        W57240   1.865   3.384   3.614 -0.3279  0.1714 -0.0297
    1W        W57241  19.075  18.175   2.011 -0.0132  0.2425 -0.1986
    1W        W57242  17.223   4.845   6.542 -0.2427  0.0083 -0.0166
    1W        W57243   7.043  10.754   8.610  0.1432  0.0159 -0.0014
    1W        W57244   4.442  23.703   8.633 -0.2350 -0.2486  0.4100
    1W        W57245  15.112   3.416   7.165 -0.2507  0.3116 -0.3851
    1W        W57246   3.106  13.354   8.477 -0.0080  0.1237 -0.1630
    1W        W57247  24.312   9.422   1.305 -0.0454  0.0907 -0.0047
    1W        W57248  23.083  16.634   0.423  0.1833  0.0515 -0.1018
    1W        W57249  11.481  16.723   2.503 -0.1919  0.2144  0.2043
    1W        W57250   6.586  28.609   0.001 -0.3342 -0.1029 -0.1497
    1W        W57251  25.249   5.961   1.658  0.2861  0.3140  0.0040
    1W        W57252   4.041   6.839   7.544 -0.2280  0.2471  0.2955
    1W        W57253   5.419   1.850   1.716 -0.1247  0.2728 -0.0222
    1W        W57254  15.054  15.898   2.870 -0.1004 -0.0463  0.2078
    1W        W57255  13.980   2.974   1.050 -0.0838 -0.2636 -0.0441
    1W        W57256   1.290  23.513   0.971  0.0211 -0.1578 -0.1690
    1W        W57257  27.205  23.658   6.420 -0.2055 -0.0777 -0.2016
    1W        W57258  11.976   9.656   8.549 -0.0991 -0.1056  0.1683
    1W        W57259   3.085  26.102   0.405  0.1289  0.3414  0.0627
    1W        W57260   8.203   1.636   8.409  0.1577  0.0715 -0.1273
    1W        W57261  17.890  22.208   6.009  0.2669 -0.4674 -0.0292
    1W        W57262  18.889  24.165   5.812 -0.1820 -0.1718  0.2762
    1W        W57263  27.372   0.003   6.977 -0.2134 -0.1259 -0.0308
    1W        W57264   7.343   6.047   3.573  0.3665 -0.2822 -0.4525
    1W        W57265   8.602  18.066   0.589  0.0552 -0.1981 -0.3511
    1W        W57266  17.851  22.396   2.649 -0.0968 -0.0167 -0.2360
    1W        W57267  19.764  22.512   1.912  0.3144 -0.2122  0.3577
    1W        W57268  20.442  16.675   6.630 -0.0014  0.2536  0.0190
    1W        W57269  19.964  10.770   1.522 -0.2353  0.3645  0.0749
    1W        W57270  15.912  11.084   1.522  0.1608  0.1227  0.2199
    1W        W57271  27.527  22.108   8.661  0.0363 -0.0619 -0.0310
    1W        W57272  16.473  21.523   8.479 -0.1541  0.1235  0.4328
    1W        W57273   6.046  13.692   7.897 -0.0495 -0.4481  0.2641
    1W        W57274  27.402   6.034   9.201 -0.1839  0.3816 -0.0563
    1W        W57275   1.958  18.312   7.235 -0.0259 -0.2719  0.0815
    1W        W57276  18.476  25.192   7.305  0.0129 -0.2512  0.0837
    1W        W57277  19.869   4.643   8.528 -0.1976 -0.1660 -0.0466
    1W        W57278  21.091   1.842   2.900  0.1279  0.3094  0.2056
    1W        W57279   9.650  15.182   1.365  0.0573  0.0249 -0.0666
    1W        W57280  25.846  27.737   2.871  0.0412 -0.3171 -0.0355
    1W        W57281   7.111  29.344   0.509 -0.0643 -0.0937 -0.0732
    1W        W57282   1.786   5.442   6.880  0.1623 -0.1750 -0.0411
    1W        W57283  28.667  19.790   7.154 -0.2023  0.0487  0.0781
    1W        W57284   3.137   6.693   1.866 -0.1426  0.0797 -0.1658
    1W        W57285  12.349  18.386   1.843  0.1802  0.1837 -0.0795
    1W        W57286  18.395   6.687   1.326 -0.0683  0.0313 -0.0769
    1W        W57287  27.737   7.743   2.781 -0.0935 -0.0752 -0.0567
    1W        W57288  24.237  10.792   1.743  0.1530  0.1328 -0.0960
    1W        W57289   7.987  13.808   0.345  0.0024  0.1193  0.3409
    1W        W57290  20.256  13.596   7.862 -0.0214  0.1217  0.2588
    1W        W57291   1.877  21.564   6.315  0.1824  0.1067 -0.0812
    1W        W57292  29.898  29.952   0.239 -0.1323  0.1243 -0.3067
    1W        W57293  23.331  22.942   7.337  0.2436  0.1244 -0.2856
    1W        W57294  23.981   1.587   6.940 -0.3682 -0.0112  0.0514
    1W        W57295  16.716  22.528   7.606 -0.3264  0.0956 -0.0010
    1W        W57296  12.125   8.767   8.189 -0.1969  0.2314  0.3453
    1W        W57297  15.075  11.692   6.759 -0.0855 -0.0155  0.1208
    1W        W57298  28.200  12.604   7.431  0.0594  0.2176 -0.3693
    1W        W57299  27.858   9.978   9.209 -0.0002 -0.0597  0.0299
    1W        W57300  14.976  26.565   0.942  0.1170 -0.0934 -0.2183
    1W        W57301  15.748  23.975   1.769 -0.1093  0.0609  0.3223
    1W        W57302  21.984  24.296   1.234  0.0558  0.2391 -0.2160
    1W        W57303  18.250  24.033   5.870  0.1406 -0.1499  0.5739
    1W        W57304  16.205  25.215   0.938 -0.1937  0.1425  0.0987
    1W        W57305  22.472  12.097   0.868 -0.1800 -0.3162  0.0137
    1W        W57306   6.180  27.801   0.160  0.0577  0.0625  0.1407
    1W        W57307  11.391   8.894   8.144  0.1764  0.0579 -0.2194
    1W        W57308  25.778  26.236   7.423  0.0475  0.0694 -0.0957
    1W        W57309  27.970   4.135   1.264 -0.0636 -0.0004  0.0892
    1W        W57310   7.512   2.505   7.330  0.0347  0.0005 -0.2945
    1W        W57311  13.786   9.176   6.510 -0.2415 -0.0579 -0.0040
    1W        W57312  13.100  27.340   2.937  0.1817 -0.1277  0.3643
    1W        W57313  25.846   4.179   3.950 -0.2370 -0.1636 -0.0684
    1W        W57314   4.665   1.259   8.670  0.5882 -0.1720 -0.1192
    1W        W57315   7.617  10.762   8.530 -0.1206  0.0018 -0.0476
    1W        W57316  27.184  14.297   8.269 -0.1552  0.0977  0.0105
    1W        W57317   1.807   9.464   8.128 -0.4123 -0.1105  0.1770
    1W        W57318  22.761  11.694   8.391  0.0149  0.1594 -0.2543
    1W        W57319  30.076  25.177   8.293 -0.0414  0.1869  0.1921
    1W        W57320   2.064   5.761   2.788 -0.1898 -0.0026  0.1741
    1W        W57321   2.490   4.993   8.436  0.2401  0.5975  0.0973
    1W        W57322  19.823   1.458   1.424  0.1511 -0.1487  0.2250
    1W        W57323  22.258  19.427   5.685 -0.0234  0.2565  0.1977
    1W        W57324   2.576  19.964   8.465 -0.1340 -0.0275  0.1853
    1W        W57325  19.735  27.800   0.682  0.1373  0.0261  0.1592
    1W        W57326  20.627  19.669   1.864  0.3735 -0.0537  0.1854
    1W        W57327  18.374   7.528   7.730  0.2679 -0.0541  0.0861
    1W        W57328   2.320  26.135   0.815 -0.3039  0.0465  0.3215
    1W        W57329   0.441   7.030   2.660  0.0574  0.1772 -0.2424
    1W        W57330  15.170   8.738   9.114  0.1748  0.2058  0.2277
    1W        W57331  11.802  12.222   8.017 -0.2940 -0.0429  0.1493
    1W        W57332  13.024   6.564   6.342  0.2688  0.0414  0.2545
    1W        W57333   1.063  18.324   7.162  0.2099 -0.2055  0.2390
    1W        W57334  25.262  25.600   1.557 -0.0916 -0.0639 -0.3579
    1W        W57335   5.012  23.629   1.977 -0.3009 -0.1173  0.2101
    1W        W57336  12.989  20.630   8.066  0.1844 -0.0285 -0.0888
    1W        W57337  25.458   8.525   1.180 -0.2973 -0.2146  0.3036
    1W        W57338  29.400  27.823   1.939  0.1958 -0.1591 -0.0003
    1W        W57339  27.750  30.002   0.719  0.3109  0.0916 -0.0179
    1W        W57340  22.759  22.098   0.569  0.2274 -0.0357  0.1459
    1W        W57341  25.256  15.975   2.653  0.0911  0.4025  0.0446
    1W        W57342   4.600  18.166   0.954  0.1948 -0.0235 -0.0327
    1W        W57343  11.347   0.247   0.681 -0.1184  0.1022 -0.3644
    1W        W57344  21.644  13.140   6.971  0.0924  0.1400  0.1139
    1W        W57345  29.920  20.236   1.275  0.2459 -0.0323  0.0758
    1W        W57346  10.174   0.627   9.254  0.0291 -0.0621  0.0956
    1W        W57347  25.005  10.402   7.069  0.0489  0.1039 -0.3790
    1W        W57348  19.996   2.812   1.803 -0.0337 -0.1809  0.1751
    1W        W57349  29.445  18.817   7.797 -0.0034  0.1037  0.0772
    1W        W57350   3.194   4.125   0.500  0.3728 -0.0801  0.1138
    1W        W57351  30.188  12.943   7.204 -0.0797  0.1477  0.0582
    1W        W57352   1.691  20.564   0.781  0.0229 -0.1137  0.1598
    1W        W57353  28.503  26.487   7.201 -0.1354  0.0844 -0.0355
    1W        W57354  18.710   8.230   5.296  0.1247  0.1984  0.0286
    1W        W57355  24.398  19.210   8.975 -0.2691 -0.1179 -0.0828
    1W        W57356  14.552  11.606   7.418 -0.1721  0.1535  0.1176
    1W        W57357  12.352   7.174   2.263  0.1717 -0.0590 -0.1311
    1W        W57358   7.526  28.845   8.964  0.0109 -0.0958 -0.2866
    1W        W57359  14.525  24.001   9.099  0.1418  0.0700 -0.0829
    1W        W57360  25.913  10.966   1.139  0.3426 -0.1048  0.1042
    1W        W57361   9.990  25.226   6.532  0.0122  0.2056 -0.0580
    1W        W57362  16.880   0.850   8.185  0.1638 -0.0819 -0.1031
    1W        W57363  28.985  28.185   9.160  0.2118 -0.1585  0.0534
    1W        W57364  26.377   0.264   1.610 -0.2289 -0.0147  0.1866
    1W        W57365   6.419  21.209   7.754 -0.5577  0.0813  0.1907
    1W        W57366  10.743  15.648   1.751 -0.0960  0.0179 -0.1072
    1W        W57367  21.819  21.307   0.254 -0.0947  0.1377 -0.5329
    1W        W57368   9.299  28.503   9.247  0.2083  0.0396  0.2380
    1W        W57369  11.045  19.913   1.404 -0.0915 -0.0905 -0.3971
    1W        W57370  12.724  19.158   1.852 -0.0324  0.1017 -0.1374
    1W        W57371  15.971  17.626   0.095 -0.0196 -0.0291 -0.2998
    1W        W57372  17.619  29.767   2.899 -0.2362  0.0204 -0.0561
    1W        W57373  20.011   6.903   8.685  0.1514 -0.1713 -0.2539
    1W        W57374  30.092  23.557   1.122 -0.1687 -0.0850  0.2520
    1W        W57375  27.606   6.942   1.971 -0.2704  0.1066 -0.2677
    1W        W57376  23.710  14.797   8.215  0.1069 -0.0907  0.1240
    1W        W57377   0.794  27.092   8.814 -0.3341  0.3678  0.1467
    1W        W57378  16.434   2.542   0.564 -0.0872 -0.1868  0.1209
    1W        W57379  28.193   0.709   3.625  0.1987 -0.2235  0.1732
    1W        W57380  23.392  28.848   1.773  0.2302  0.1170 -0.0480
    1W        W57381  14.071   2.367   7.851 -0.3520 -0.1039 -0.0462
    1W        W57382  26.600   1.160   7.712 -0.5604 -0.1542 -0.0752
    1W        W57383  25.455   0.543   1.199  0.2677 -0.0069  0.3313
    1W        W57384  29.492  27.843   6.703  0.2454  0.1676 -0.2566
    1W        W57385   4.531   8.205   8.535 -0.0714  0.1848  0.0911
    1W        W57386  21.625  26.887   6.784  0.0254  0.0902  0.2092
    1W        W57387  13.787   6.672   8.490 -0.2723 -0.1077 -0.3246
    1W        W57388  17.607  28.929   3.258  0.2834 -0.1938 -0.2171
    1W        W57389  23.411  27.879   1.465  0.1138 -0.1343 -0.2051
    1W        W57390  29.946  28.363   7.862 -0.0086  0.0604  0.0061
    1W        W57391  27.371  14.665   8.565 -0.0971 -0.3458 -0.0014
    1W        W57392  28.427   7.610   2.363 -0.2939 -0.2854  0.2516
    1W        W57393   4.575  25.204   1.020  0.1358 -0.0597  0.1266
    1W        W57394  22.942  17.288   1.204  0.1317 -0.1096 -0.0318
    1W        W57395  26.535  16.182   6.970 -0.2367 -0.1186 -0.2642
    1W        W57396   6.499  29.004   8.941  0.0679  0.1048  0.0951
    1W        W57397  14.606  26.716   2.032  0.1373 -0.2361  0.2310
    1W        W57398  21.496  27.543   0.857 -0.0461  0.0798  0.1273
    1W        W57399   6.328  28.175   3.222 -0.4401  0.3721 -0.0706
    1W        W57400  14.041  11.693   6.918 -0.1534 -0.1620  0.3115
    1W        W57401   1.091  27.460   7.989 -0.1358 -0.1401 -0.1687
    1W        W57402   9.649   7.888   1.207 -0.0599  0.1639  0.2419
    1W        W57403  28.622   9.496   1.519  0.0962  0.2273 -0.1427
    1W        W57404  18.652  29.231   0.234  0.0164 -0.0593  0.0065
    1W        W57405   9.544  13.096   7.853 -0.1301  0.2239  0.1948
    1W        W57406  20.833  13.360   7.361  0.1937  0.2314 -0.1913
    1W        W57407  22.820   1.225   6.824  0.1660  0.0569 -0.2324
    1W        W57408  10.087   3.554   0.636 -0.0902 -0.3214 -0.0341
    1W        W57409  19.399  26.800   7.181 -0.4508  0.0293  0.0419
    1W        W57410  23.165  19.683   8.627  0.1131  0.1250  0.0779
    1W        W57411   3.703  10.818   6.921  0.1181 -0.1821  0.0303
    1W        W57412   2.791   1.373   3.294  0.0189  0.0657  0.2768
    1W        W57413   6.232  18.478   6.794  0.4533  0.0287  0.0637
    1W        W57414  13.507   3.917   7.196  0.0997  0.2680  0.1143
    1W        W57415  25.141   2.646   0.355 -0.0230  0.0844  0.1615
    1W        W57416  21.017  29.927   8.847  0.2685  0.2010 -0.1530
    1W        W57417  18.548   4.510   8.758 -0.0105  0.1542 -0.0554
    1W        W57418  19.942   2.835   2.296  0.1236  0.2663 -0.1724
    1W        W57419   2.649  10.198   0.225  0.0575  0.2506  0.1148
    1W        W57420   8.673  28.042   2.339 -0.2472 -0.0756 -0.0351
    1W        W57421  24.078   8.267   8.782  0.2519  0.1850  0.2036
    1W        W57422  13.324  10.281   1.533  0.0267  0.0295  0.1332
    1W        W57423  17.478  22.408   8.539 -0.3144  0.1125  0.0379
    1W        W57424  26.994  14.960   8.218 -0.3325 -0.3034  0.2955
    1W        W57425  17.775  29.086   0.835 -0.0032 -0.3946 -0.0961
    1W        W57426  27.596   4.100   7.635 -0.6198  0.0131 -0.0527
    1W        W57427   1.190  10.571   1.785  0.1888  0.0368 -0.2594
    1W        W57428  11.304  17.964   0.129  0.2428 -0.1820 -0.1151
    1W        W57429   0.043  27.836   3.891  0.3621 -0.0475 -0.0345
    1W        W57430  23.627  19.876   8.903  0.0434 -0.1820  0.0397
    1W        W57431   0.575  25.289   1.231  0.1765 -0.0102 -0.0022
    1W        W57432   1.534  20.996   0.975  0.1502  0.0782 -0.0262
    1W        W57433   7.693  24.506   8.344 -0.0651  0.1709 -0.3242
    1W        W57434   6.288  19.247   0.966  0.0899 -0.0082  0.0435
    1W        W57435  27.229  19.751   6.922  0.0773  0.2577 -0.0081
    1W        W57436  23.415  14.929   0.997 -0.0678 -0.1880  0.1442
    1W        W57437   0.217   1.088   7.420 -0.0335  0.3566 -0.2398
    1W        W57438  16.791   8.128   6.756  0.3666 -0.2493 -0.2285
    1W        W57439  25.044  29.188   7.489 -0.1846  0.3195 -0.1124
    1W        W57440   3.799  22.266   1.768  0.2647 -0.3006 -0.1272
    1W        W57441  11.384   5.981   7.296  0.1030  0.4676 -0.1269
    1W        W57442   1.807  18.614   7.574 -0.0706 -0.3124  0.0398
    1W        W57443  14.290  11.161   7.998  0.0995 -0.4259 -0.0638
    1W        W57444  18.726   2.180   6.459  0.1404 -0.5285 -0.2238
    1W        W57445  19.628  19.180   6.851 -0.0235  0.1725  0.0286
    1W        W57446   4.297  18.047   0.568  0.3218  0.1166  0.4410
    1W        W57447  22.881  19.027   0.466  0.0272  0.1737  0.0664
    1W        W57448   3.423  11.981   7.379  0.5275 -0.1261  0.5484
    1W        W57449   6.471  20.535   7.071 -0.0729 -0.1152  0.1230
    1W        W57450  11.216  24.323   5.684  0.2559  0.1063  0.0944
    1W        W57451  10.173  17.273   5.994  0.1379  0.0540  0.2402
    1W        W57452   0.116  16.604   7.654  0.0122  0.2534  0.0134
    1W        W57453  29.630   6.986   0.741  0.3234  0.2456  0.3909
    1W        W57454  22.062  19.661   7.749 -0.0010 -0.0256 -0.0512
    1W        W57455  22.313  26.232   8.012  0.0802 -0.2484 -0.1866
    1W        W57456   6.071  15.668   6.793  0.1438  0.1591 -0.0520
    1W        W57457  26.662  12.843   7.750  0.1151  0.0997  0.1850
    1W        W57458  25.178   7.533   1.634 -0.2118  0.0492 -0.0321
    1W        W57459   9.973   7.460   7.554  0.0683 -0.5008 -0.0204
    1W        W57460  30.203   2.223   8.584 -0.0493 -0.0318 -0.0226
    1W        W57461   1.326  26.756   8.759  0.2491  0.1188  0.2672
    1W        W57462   6.518  28.744   3.282  0.0680  0.1365 -0.2744
    1W        W57463   0.608   5.256   6.248  0.0653 -0.0649 -0.1252
    1W        W57464   0.828  13.414   7.679  0.0074  0.0710 -0.4105
    1W        W57465  13.091  16.178   8.044  0.2064 -0.1262 -0.1310
    1W        W57466   3.196  28.104   3.433 -0.1883 -0.2367  0.1005
    1W        W57467  21.730  27.707   0.419  0.1776  0.2508  0.2170
    1W        W57468  15.617  25.068   1.971  0.0470 -0.0320 -0.0793
    1W        W57469  12.896  25.667   9.147  0.2145 -0.0031  0.0855
    1W        W57470  10.613  28.267   3.439 -0.1371  0.1324  0.1999
    1W        W57471  14.630  12.800   0.775  0.1212 -0.0892  0.0534
    1W        W57472  18.193  18.439   1.549 -0.1933 -0.1193  0.0211
    1W        W57473   6.980  27.009   0.083  0.2032 -0.0360 -0.0236
    1W        W57474   5.765   2.894   4.009  0.2629  0.1690 -0.2201
    1W        W57475  15.954  25.646   0.897 -0.0216 -0.2307  0.0951
    1W        W57476   2.404  27.182   7.837 -0.0010 -0.0532  0.0154
    1W        W57477  27.160   5.626   8.741 -0.1948  0.0769  0.3819
    1W        W57478  18.485  20.269   1.166 -0.0079  0.1345 -0.0923
    1W        W57479  18.689  18.319   1.787 -0.1460  0.1999 -0.1798
    1W        W57480  18.472   9.614   2.234  0.0979 -0.2817 -0.0308
    1W        W57481  27.325   9.289   8.396 -0.0683 -0.0582 -0.3864
    1W        W57482  19.419   7.780   6.593  0.3377  0.0047  0.3056
    1W        W57483  15.080   6.662   5.672 -0.1707 -0.1600  0.1187
    1W        W57484   2.024  13.774   1.014  0.2432 -0.1564  0.1740
    1W        W57485  13.995   0.405   3.360  0.0562 -0.1056 -0.1665
    1W        W57486   8.480  27.730   3.068 -0.0732  0.2112 -0.1819
    1W        W57487  10.221  16.747   8.533  0.2332  0.1467  0.0511
    1W        W57488  17.267   4.039   1.626  0.2636  0.0284 -0.0486
    1W        W57489  25.142   9.554   1.970 -0.1054 -0.0989 -0.2003
    1W        W57490  26.280  11.813   0.097 -0.0520 -0.0555  0.0152
    1W        W57491  17.758  20.795   7.821  0.0958  0.1375  0.0358
    1W        W57492   4.994   1.429   0.582 -0.1196  0.2054 -0.1571
    1W        W57493  19.174  13.746   1.648  0.1725  0.0339 -0.1931
    1W        W57494   2.472   8.209   8.450  0.1614 -0.2900  0.0951
    1W        W57495  12.459  28.910   2.719 -0.4050  0.1054  0.2129
    1W        W57496  23.411  20.102   8.326  0.1933  0.0497 -0.0594
    1W        W57497  29.505   4.871   1.130  0.2945  0.0494 -0.0924
    1W        W57498  13.943  12.625   8.594 -0.2599 -0.2355  0.2884
    1W        W57499   9.013  16.628   6.488  0.1353  0.0966  0.0524
    1W        W57500   7.049  30.098   3.279 -0.1493 -0.2594  0.0200
    1W        W57501  20.231  28.159   8.050  0.1043 -0.3609 -0.0026
    1W        W57502  22.250   9.252   9.011 -0.5338 -0.1426 -0.0573
    1W        W57503  20.245  23.259   6.263 -0.0663  0.0401  0.3397
    1W        W57504  10.762  26.213   0.189  0.2456  0.1504  0.1352
    1W        W57505  24.414  24.177   1.158 -0.5169 -0.0065  0.0150
    1W        W57506  17.747   7.111   1.345  0.1873 -0.2938  0.0846
    1W        W57507  23.464  18.953   1.909 -0.1959 -0.1476  0.2998
    1W        W57508  13.440  22.010   0.560 -0.1638 -0.2262  0.1039
    1W        W57509   8.154  27.058   2.346 -0.1266  0.1641 -0.0525
    1W        W57510  20.305  23.978   0.840 -0.3165  0.4016  0.3330
    1W        W57511  17.413  10.970   2.658 -0.0560 -0.1303 -0.1082
    1W        W57512  19.514  30.061   1.947 -0.0269 -0.0178 -0.0840
    1W        W57513  25.437   8.573   6.345 -0.0517  0.2779  0.2224
    1W        W57514  14.838  16.351   7.356  0.1236  0.1251 -0.0435
    1W        W57515  28.662  21.942   2.523 -0.0076 -0.0966  0.3491
    1W        W57516   9.587  20.871   5.642  0.0350  0.1585 -0.0014
    1W        W57517   2.405   2.765   2.686  0.0822 -0.2801  0.3831
    1W        W57518  24.568   8.962   6.707 -0.3415 -0.0218  0.1469
    1W        W57519  15.890  14.285   8.334 -0.0303  0.1930  0.1222
    1W        W57520  11.849  17.202   0.496  0.0044  0.1412  0.1111
    1W        W57521  25.652  25.122   3.139  0.3072 -0.1379 -0.1269
    1W        W57522  19.267  16.209   7.837 -0.1026 -0.2595 -0.0972
    1W        W57523  17.419  21.352   0.484  0.2126  0.1341  0.1739
    1W        W57524  17.696  12.996   9.247  0.0076 -0.0474 -0.0775
    1W        W57525  25.976  27.230   2.511  0.1703 -0.0371 -0.1629
    1W        W57526   3.508  17.787   8.698 -0.1952 -0.3280  0.0988
    1W        W57527  13.220   8.456   1.731 -0.1512  0.1149 -0.0106
    1W        W57528  21.888  14.653   0.050  0.1053  0.2849  0.0209
    1W        W57529  15.708  17.738   5.834  0.0501  0.0320 -0.0499
    1W        W57530  14.798  13.047   8.284 -0.1937 -0.0519  0.1832
    1W        W57531   0.912   5.617   6.459 -0.0270  0.1899 -0.1156
    1W        W57532  12.190  17.916   7.372  0.0370 -0.0567 -0.0552
    1W        W57533  15.737  22.543   0.363  0.4848 -0.1595  0.4375
    1W        W57534   1.191  30.027   1.667  0.0702  0.3395 -0.3961
    1W        W57535  26.583  12.583   8.319  0.1990 -0.0450 -0.0249
    1W        W57536  20.359  11.615   0.568 -0.0245  0.2495 -0.0676
    1W        W57537  28.237  10.402   1.914  0.1070  0.2796 -0.2215
    1W        W57538  12.903   8.504   7.208  0.1199 -0.2934 -0.1126
    1W        W57539  15.839   7.711   6.858 -0.4030  0.0247 -0.2515
    1W        W57540   8.080  18.754   9.199  0.1105  0.3515 -0.1227
    1W        W57541   6.383  12.162   6.670 -0.0394  0.2204  0.0743
    1W        W57542  14.981  28.756   0.072 -0.1311  0.0244 -0.1153
    1W        W57543  20.473  15.610   1.880 -0.1678 -0.0774  0.0353
    1W        W57544  10.515  25.016   8.979 -0.3161  0.0797 -0.1624
    1W        W57545  18.459  14.606   2.780  0.2197  0.1211  0.3359
    1W        W57546   3.635   8.769   9.042 -0.0816 -0.0823 -0.1439
    1W        W57547   2.351  12.454   0.889 -0.5054  0.1510 -0.0650
    1W        W57548   9.905   5.617   7.475 -0.0466 -0.2262  0.2332
    1W        W57549  14.378   1.935   2.484 -0.1618  0.0641 -0.1276
    1W        W57550  15.815   4.849   8.422 -0.5925 -0.1667  0.1567
    1W        W57551  10.775  26.809   8.797 -0.1038 -0.1362 -0.0648
    1W        W57552   7.385  13.280   0.775 -0.0050  0.1010  0.4632
    1W        W57553  25.224  21.361   0.674 -0.4652 -0.0226 -0.2693
    1W        W57554  26.933  26.338   1.950  0.0542 -0.0180 -0.1892
    1W        W57555   9.020  16.409   7.448 -0.1836  0.2880 -0.0237
    1W        W57556  27.993  19.778   1.867 -0.1521  0.3417 -0.2660
    1W        W57557   4.491   9.457   0.446  0.3420 -0.1308  0.0732
    1W        W57558   4.309   2.694   9.049  0.2268 -0.0428 -0.1295
    1W        W57559   5.475   4.771   8.256 -0.4977 -0.0430 -0.0252
    1W        W57560   7.489   2.902   7.549  0.0737 -0.3363 -0.0208
    1W        W57561  21.534   4.479   8.925  0.0245  0.1311  0.1007
    1W        W57562   4.901   3.286   0.400  0.1453 -0.1168 -0.0999
    1W        W57563  18.224   4.402   1.309  0.1055  0.0018 -0.1187
    1W        W57564  19.289  15.440   0.018  0.3213  0.2170 -0.1350
    1W        W57565  15.223  12.466   1.452 -0.1485  0.1548  0.0120
    1W        W57566   4.768  29.778   9.205 -0.0233  0.3396 -0.0420
    1W        W57567  11.528  13.862   0.277  0.3555  0.0943 -0.0985
    1W        W57568   6.551  25.732   2.110  0.1717 -0.0430  0.2382
    1W        W57569  13.837  30.094   7.148  0.1022 -0.1707  0.1616
    1W        W57570  14.345  30.182   3.394 -0.0519  0.2928 -0.1819
    1W        W57571  27.634   9.623   0.722 -0.2212 -0.1144  0.2855
    1W        W57572   7.776   9.423   7.959 -0.0315  0.0260 -0.1985
    1W        W57573  27.214   4.246   3.109 -0.1877 -0.0216  0.2413
    1W        W57574   4.290   8.611   8.386  0.1108 -0.2549  0.1060
    1W        W57575  11.283  18.618   2.432  0.1318 -0.3293 -0.0772
    1W        W57576  29.250  24.767   2.504  0.3035  0.3343  0.2264
    1W        W57577  11.496  11.186   2.651 -0.1895 -0.0946 -0.1445
    1W        W57578  19.664  18.290   1.109  0.0380  0.0258 -0.0319
    1W        W57579  29.517  22.890   6.660 -0.1758 -0.1011  0.0315
    1W        W57580   7.966  29.261   7.175 -0.0640 -0.1265 -0.1610
    1W        W57581   0.402   0.979   1.420 -0.1335 -0.2754  0.0637
    1W        W57582  14.163  12.558   7.883  0.1965 -0.0313 -0.2208
    1W        W57583   5.391  19.966   6.014 -0.1569  0.1388 -0.0069
    1W        W57584   4.311  25.307   3.331  0.0380  0.1995  0.0861
    1W        W57585   3.126   9.708   0.114  0.2837  0.1621  0.1824
    1W        W57586   4.995  25.753   8.767 -0.0187 -0.3708 -0.0351
    1W        W57587  14.082  22.083   0.321  0.0188  0.0659 -0.1670
    1W        W57588   9.362  16.215   6.573 -0.0268 -0.3292 -0.2827
    1W        W57589   0.525   1.211   8.799 -0.2757  0.0374 -0.3342
    1W        W57590  18.416  18.200   2.293  0.0991  0.0028 -0.0275
    1W        W57591   5.166  10.013   0.987  0.0906  0.1216 -0.0616
    1W        W57592  28.886  17.290   7.576 -0.3042  0.0918 -0.0834
    1W        W57593  28.057  22.029   8.890 -0.1140  0.1002  0.0826
    1W        W57594  16.045   6.543   9.169  0.2049 -0.0514 -0.1239
    1W        W57595  14.617  22.138   1.599 -0.1171 -0.3886  0.2060
    1W        W57596   8.703  28.231   3.023 -0.1942  0.2409  0.2635
    1W        W57597  25.163  19.774   0.549  0.1085 -0.0305 -0.0448
    1W        W57598  29.424   6.342   3.320 -0.2196 -0.1690 -0.1631
    1W        W57599  23.882  13.947   0.332 -0.2298  0.0856 -0.0295
    1W        W57600   3.582   1.843   9.078  0.2284  0.1566 -0.0156
    1W        W57601  16.052   9.265   2.340 -0.3302 -0.3522 -0.1148
    1W        W57602  29.120   4.907   1.409  0.0816 -0.1507  0.0924
    1W        W57603  19.814  24.331   8.943  0.0535 -0.1285  0.0434
    1W        W57604   1.229  27.481   0.030  0.1769 -0.2423 -0.0836
    1W        W57605   9.005  21.427   8.440 -0.0976 -0.0404 -0.3663
    1W        W57606   9.701  27.606   6.183 -0.0352  0.0677  0.1206
    1W        W57607  22.888  14.580   7.776  0.2946 -0.1346  0.0441
    1W        W57608   9.996   1.232   1.869 -0.0179  0.1217 -0.0397
    1W        W57609  13.747   0.572   1.680  0.0052  0.3260 -0.3639
    1W        W57610  16.451   9.494   0.969 -0.0374  0.1686  0.2328
    1W        W57611  21.924  21.339   1.237  0.0327 -0.0501  0.3580
    1W        W57612  18.625   6.197   7.519  0.0922 -0.2065 -0.1410
    1W        W57613  10.635   2.824   0.859  0.1325  0.1995 -0.2432
    1W        W57614  22.733   0.404   9.230  0.2462  0.3033  0.0923
    1W        W57615  18.950  25.241   2.885 -0.1028 -0.0806 -0.0515
    1W        W57616   9.282   2.086   2.689 -0.2440  0.1060  0.1039
    1W        W57617  19.068   5.776   8.508  0.1543 -0.0971  0.1644
    1W        W57618   8.397  13.754   1.157  0.2674  0.1189  0.1729
    1W        W57619   4.084  15.013   8.493  0.0126 -0.0713  0.0144
    1W        W57620  28.596  26.418   1.924 -0.0731  0.1098  0.1363
    1W        W57621  28.920  12.569   8.647  0.1431  0.0231 -0.0312
    1W        W57622  23.658  21.242   1.667  0.2513 -0.2101  0.0768
    1W        W57623  18.381   0.500   8.257  0.1820 -0.0679  0.2972
    1W        W57624  18.696  20.692   6.292  0.2019 -0.0106 -0.0573
    1W        W57625  26.227  25.956   1.586 -0.0555  0.1712 -0.4616
    1W        W57626   8.601   9.252   8.584  0.3407  0.1466  0.2206
    1W        W57627  18.200  15.166   0.041 -0.1440  0.0375 -0.2960
    1W        W57628   4.384  29.377   3.852  0.0995  0.0784 -0.0146
    1W        W57629   1.967  18.656   9.082  0.0236  0.0884  0.1334
    1W        W57630   5.608  27.935   7.350 -0.0840 -0.0428  0.0009
    1W        W57631  15.481   1.173   1.251  0.0359  0.0305  0.0717
    1W        W57632  28.462  22.331   8.869  0.0268 -0.2858  0.2565
    1W        W57633  24.171  18.313   0.361 -0.0556 -0.1619  0.2036
    1W        W57634  23.965  27.605   3.179 -0.0059  0.1313 -0.2360
    1W        W57635  28.751   4.445   8.888 -0.1775 -0.0059 -0.2462
    1W        W57636  10.496  25.748   7.431  0.2945  0.3495 -0.0837
    1W        W57637  10.767   1.215   8.284  0.0024  0.0001 -0.2763
    1W        W57638  19.525   1.888   0.584  0.2592  0.1894 -0.0361
    1W        W57639  16.009  20.355   6.470 -0.0871  0.4315  0.0381
    1W        W57640  12.201  20.595   2.389 -0.1639 -0.1320  0.0165
    1W        W57641  19.334   5.584   1.296  0.2650  0.0764  0.1192
    1W        W57642   9.010  19.837   0.286 -0.0212  0.0692  0.1615
    1W        W57643   2.435  15.305   8.271  0.0281  0.2034  0.0874
    1W        W57644  26.671  23.191   7.729  0.1814 -0.2919 -0.2647
    1W        W57645   4.732  21.668   7.671 -0.0668  0.0606  0.2909
    1W        W57646  25.549  11.128   9.179 -0.3241  0.2063  0.2576
    1W        W57647  17.052  10.279   1.405 -0.0957 -0.1605  0.1941
    1W        W57648   1.388   4.626   7.996  0.1507  0.1832  0.2514
    1W        W57649  21.511   9.755   0.635 -0.0687  0.2239  0.1686
    1W        W57650  16.381  21.285   2.197  0.2901  0.0444  0.2222
    1W        W57651  23.985   1.684   3.178 -0.1699  0.0404  0.1602
    1W        W57652  12.600  21.655   6.509  0.0746 -0.1202  0.3261
    1W        W57653  12.104  20.891   6.841 -0.1123  0.0236  0.1518
    1W        W57654  18.576  23.933   6.722  0.2645  0.3247 -0.0234
    1W        W57655  18.182  10.413   2.416  0.0728 -0.2040 -0.2414
    1W        W57656  22.419   7.961   5.998 -0.2743 -0.0807  0.0744
    1W        W57657  17.739  10.992   1.277 -0.0042  0.0014  0.0659
    1W        W57658  10.494   1.067   2.108 -0.2118  0.0714 -0.0088
    1W        W57659   8.619   2.149   1.355  0.3494 -0.2589  0.0080
    1W        W57660  23.408  10.716   8.648  0.2184 -0.1796  0.1814
    1W        W57661  25.421   5.692   2.698 -0.1066  0.0282  0.1549
    1W        W57662  14.613  29.946   2.934 -0.1204  0.3148  0.0816
    1W        W57663  20.422   0.178   2.288  0.0613  0.2143 -0.2020
    1W        W57664  14.416  16.950   8.143  0.1091  0.0349 -0.1711
    1W        W57665   9.994   5.380   1.687 -0.3298 -0.0133 -0.0572
    1W        W57666  12.054  19.216   8.285 -0.0210 -0.2385 -0.3313
    1W        W57667  25.066  17.766   8.450 -0.1451 -0.0293 -0.1926
    1W        W57668   7.530  27.253   0.860 -0.0669 -0.1015  0.1622
    1W        W57669   7.510   0.584   8.092 -0.0221 -0.2272  0.0620
    1W        W57670  28.385   3.428   9.081  0.0469 -0.0384  0.0649
    1W        W57671  13.179  16.898   7.728 -0.2886  0.3849 -0.0035
    1W        W57672  19.072   0.466   3.009  0.2880 -0.0062 -0.3397
    1W        W57673   8.506   5.320   3.736  0.2150  0.2038 -0.2396
    1W        W57674  22.273  25.364   3.359 -0.0982  0.1555  0.2869
    1W        W57675   7.802   6.119   1.391 -0.1774 -0.0897 -0.0737
    1W        W57676   7.471  25.464   1.163  0.0682 -0.2972 -0.2062
    1W        W57677   1.298  16.250   7.366  0.1231  0.3585 -0.0807
    1W        W57678  16.753  17.098   9.264  0.2266 -0.4287  0.0657
    1W        W57679   5.070  24.378   1.590 -0.2039 -0.0535  0.3438
    1W        W57680  10.533  20.354   8.417 -0.2568 -0.0155  0.1084
    1W        W57681  29.702  12.828   0.490 -0.1310 -0.4160  0.0007
    1W        W57682   4.475   1.782   1.346 -0.1390 -0.0114  0.1289
    1W        W57683  10.836  27.252   8.562 -0.0723 -0.3920  0.3473
    1W        W57684  26.130   1.759   1.206  0.1513 -0.1795  0.0066
    1W        W57685  20.286   7.708   8.988  0.0676  0.2452  0.3596
    1W        W57686   8.275   7.875   2.434 -0.0544 -0.1208 -0.2704
    1W        W57687   6.841  24.187   6.676 -0.0246  0.1392  0.1452
    1W        W57688   9.599   3.522   0.684  0.2670 -0.1287 -0.1200
    1W        W57689  14.652  15.161   1.541 -0.1481 -0.0929  0.2811
    1W        W57690  20.117   5.769   0.036 -0.1111 -0.0897  0.0083
    1W        W57691   7.946  16.029   8.818  0.2458  0.4032 -0.1073
    1W        W57692  15.472   9.549   1.492  0.0825  0.1465  0.0329
    1W        W57693   4.895  24.861   8.588 -0.1008  0.3246  0.0211
    1W        W57694  19.474   5.775   0.372 -0.1769 -0.1182  0.1587
    1W        W57695  23.768  16.986   6.466  0.2921 -0.1478 -0.4574
    1W        W57696  10.009   6.291   2.319 -0.1165 -0.1389 -0.2043
    1W        W57697  16.679   7.537   2.541  0.2119  0.1723  0.2700
    1W        W57698  24.472  10.621   5.290 -0.0105 -0.1157 -0.0609
    1W        W57699   7.287   6.926   8.262 -0.1402  0.0088 -0.0484
    1W        W57700   3.562   1.570   6.566 -0.1863  0.1774  0.4775
    1W        W57701  20.080   8.379   8.455 -0.0312  0.1718 -0.0060
    1W        W57702  14.891  12.303   7.841 -0.2202  0.1513  0.0443
    1W        W57703   1.553   3.344   6.541 -0.2411 -0.1078 -0.0478
    1W        W57704  24.134  11.231   6.820 -0.2158 -0.4471  0.1997
    1W        W57705  14.866  21.584   5.815  0.1825 -0.2339 -0.0003
    1W        W57706  11.342   6.902   0.648  0.0654  0.1331  0.0749
    1W        W57707   4.907  30.331   3.187 -0.1520  0.0876  0.0279
    1W        W57708  16.534   7.592   1.986 -0.2229  0.2550 -0.1057
    1W        W57709  18.302   6.957   7.778 -0.1020 -0.1400  0.3222
    1W        W57710  13.262   7.355   2.022  0.3323  0.1591 -0.1096
    1W        W57711   9.468  15.252   8.118  0.3307 -0.1198 -0.0429
    1W        W57712   2.849  19.019   8.852 -0.0810 -0.3574  0.1679
    1W        W57713   5.637   3.484   8.429  0.2164  0.3459  0.1271
    1W        W57714  15.489  26.813   1.276 -0.0428 -0.1358  0.1232
    1W        W57715  14.885  15.332   2.463  0.3438 -0.1653  0.0080
    1W        W57716  14.141  11.029   8.782  0.2641 -0.0736  0.2172
    1W        W57717   4.517  24.313   2.352 -0.2360 -0.0577  0.0989
    1W        W57718   3.529  18.967   7.360  0.0296  0.0579  0.0085
    1W        W57719  16.870   2.879   8.226  0.0108  0.0481  0.0511
    1W        W57720  24.985   7.705   6.295  0.4890 -0.1890 -0.1231
    1W        W57721  28.809   5.823   0.260  0.1107  0.0827 -0.0139
    1W        W57722  19.634  22.396   2.409 -0.1155  0.1763  0.1772
    1W        W57723  20.699  25.759   8.421 -0.1382 -0.0009  0.0919
    1W        W57724  11.260  13.410   2.144 -0.2554  0.1977 -0.2011
    1W        W57725  18.178  19.558   1.803 -0.2863 -0.2424 -0.0483
    1W        W57726  27.889   9.919   1.423  0.2145 -0.1152 -0.2550
    1W        W57727  24.383  15.554   8.724  0.4427  0.1821  0.2512
    1W        W57728  28.216   8.356   2.147  0.0125 -0.0136 -0.2812
    1W        W57729   2.611   1.830   2.970  0.2322 -0.1927  0.1516
    1W        W57730   8.098   2.770   8.908 -0.0716 -0.0260 -0.0802
    1W        W57731  30.235  17.625   7.556  0.2220 -0.2294  0.2868
    1W        W57732  17.160  15.872   1.160 -0.1466  0.1380  0.0012
    1W        W57733  19.379   9.656   2.113  0.2589 -0.0376 -0.1116
    1W        W57734  27.752  12.411   0.077  0.0379 -0.0327 -0.1128
    1W        W57735   0.303  20.009   1.505  0.1197 -0.3806 -0.2134
    1W        W57736   2.368   2.359   0.216  0.0692 -0.0271 -0.0339
    1W        W57737  24.084   1.853   7.702  0.3233 -0.0467  0.0587
    1W        W57738  19.651  28.612   1.664  0.0843 -0.0048 -0.1335
    1W        W57739  23.259  17.105   8.781 -0.4411  0.2043  0.2484
    1W        W57740   1.345   2.428   8.431  0.1045  0.2229  0.1114
    1W        W57741  18.002  28.477   6.625  0.3510  0.0417 -0.0525
    1W        W57742  11.938  25.105   8.503  0.4801  0.0051 -0.2621
    1W        W57743  19.823   5.696   2.551  0.1230 -0.1006 -0.1745
    1W        W57744  20.648  22.834   8.916  0.1218  0.1719 -0.1272
    1W        W57745  25.149  11.202   0.893 -0.0963 -0.3401 -0.0281
    1W        W57746   8.944  14.246   2.214  0.0026 -0.0519  0.3577
    1W        W57747  29.843  23.241   0.073  0.0407  0.3251  0.1231
    1W        W57748   6.217  15.910   1.146 -0.1821 -0.1213  0.3293
    1W        W57749  12.475   3.840   3.082  0.1055 -0.3651  0.1124
    1W        W57750  28.940  13.131   7.363  0.1405 -0.0316  0.4720
    1W        W57751  19.680   2.443   1.529 -0.3053  0.2631  0.1499
    1W        W57752  15.947  18.706   1.870  0.0517 -0.1793 -0.2028
    1W        W57753  14.943   2.444   7.113  0.0115 -0.2899 -0.2084
    1W        W57754   5.691  13.417   1.439  0.0264  0.0353 -0.0356
    1W        W57755  28.183  28.188   8.351  0.0453 -0.0201  0.0293
    1W        W57756   8.526  17.627   6.335 -0.0326 -0.0475  0.2936
    1W        W57757  11.559   4.483   5.789 -0.1037 -0.0636 -0.1163
    1W        W57758  17.104  22.517   1.987 -0.0111 -0.1771 -0.1804
    1W        W57759  27.476   7.206   7.080  0.0170 -0.1674 -0.1543
    1W        W57760  22.574   3.096   0.054 -0.0693  0.0431 -0.2495
    1W        W57761   3.877   4.289   2.527 -0.1346 -0.0751 -0.0870
    1W        W57762  11.705  21.065   6.492 -0.0461 -0.0032 -0.0363
    1W        W57763  24.167   0.773   8.109 -0.1859  0.2080  0.1576
    1W        W57764  27.935  19.837   6.509 -0.0797 -0.0171  0.0525
    1W        W57765   1.977   5.548   2.146  0.0576  0.4061  0.1876
    1W        W57766  25.227   7.248   0.878  0.0086 -0.1173 -0.0095
    1W        W57767  23.297  26.349   7.961  0.3738 -0.0328 -0.0439
    1W        W57768  25.826  17.677   8.487 -0.0425 -0.0107 -0.1284
    1W        W57769   4.427   5.264   0.175 -0.0677 -0.0864 -0.0143
    1W        W57770   5.638  12.399   1.286  0.0184  0.0797 -0.4473
    1W        W57771  24.043  13.458   7.861  0.0168 -0.1792 -0.0522
    1W        W57772  27.039   0.814   9.019  0.3037  0.0446 -0.2651
    1W        W57773  25.598  16.078   0.560 -0.0737 -0.0907  0.1738
    1W        W57774  22.783  28.283   8.916  0.0264 -0.1557  0.1394
    1W        W57775   6.687  13.985   6.168 -0.2673 -0.0432 -0.4101
    1W        W57776   7.041  10.916   2.052  0.0299  0.0650 -0.5396
    1W        W57777   9.520   3.930   7.758 -0.2008  0.1758  0.0510
    1W        W57778   9.589  19.746   6.829  0.1779  0.0986 -0.2424
    1W        W57779   8.280  20.131   6.783 -0.1423 -0.0903  0.1334
    1W        W57780  24.976  17.882   7.614  0.0348 -0.2505 -0.0092
    1W        W57781  14.173  23.207   8.947 -0.2648 -0.4609 -0.1164
    1W        W57782   3.664   0.631   1.299 -0.2193 -0.2209  0.0022
    1W        W57783  23.949   6.028   7.085 -0.3846 -0.0382  0.2172
    1W        W57784  19.905  25.939   1.770 -0.2601 -0.0295 -0.0269
    1W        W57785  13.252  26.320   3.326 -0.1244  0.4072 -0.1612
    1W        W57786   9.557   8.987   9.150  0.0626  0.0114 -0.1937
    1W        W57787  20.308   3.109   9.122  0.0069 -0.3616  0.1030
    1W        W57788  14.668   8.153   6.986  0.2111 -0.1320  0.3268
    1W        W57789  14.248  30.135   8.023 -0.0250 -0.0493 -0.2891
    1W        W57790   3.356  29.583   8.660  0.0370 -0.2730  0.1528
    1W        W57791  18.978  20.400   1.392  0.2690  0.0790  0.1802
    1W        W57792  16.150  15.536   9.150 -0.0612 -0.1681  0.1154
    1W        W57793  19.058  14.844   7.783 -0.1078  0.0450 -0.2181
    1W        W57794   8.219   8.859   8.679 -0.3222  0.0108  0.0129
    1W        W57795  15.079   3.494   2.589  0.0852  0.0197 -0.1411
    1W        W57796  12.925  11.138   0.244  0.1818  0.0339  0.1388
    1W        W57797  20.851  28.712   6.891  0.0342 -0.0835 -0.0190
    1W        W57798  10.823  22.563   6.375 -0.3635  0.1382  0.1785
    1W        W57799  27.066   8.607   1.572 -0.0374  0.1004  0.0115
    1W        W57800   6.985  26.783   0.560  0.3802 -0.0614  0.1017
    1W        W57801  27.442  26.886   0.805 -0.4236 -0.0915  0.0899
    1W        W57802   4.361   3.686   1.243 -0.0352 -0.1451 -0.2134
    1W        W57803  27.216  14.307   7.419 -0.1109  0.1545  0.1691
    1W        W57804   3.423   9.040   1.388 -0.0170 -0.1787 -0.0918
    1W        W57805   2.494  29.078   7.161  0.1570  0.4446 -0.2227
    1W        W57806  27.647  16.799   0.918  0.4162  0.0706  0.0074
    1W        W57807  25.548  15.853   6.975  0.1448 -0.1250 -0.0433
    1W        W57808  12.846  14.289   8.984 -0.0502  0.3892  0.0450
    1W        W57809  22.000   7.281   2.643  0.0894  0.0766 -0.0916
    1W        W57810  18.007  10.435   1.888  0.2239 -0.1278 -0.1418
    1W        W57811  26.863  28.177   1.442 -0.1371  0.1185 -0.0446
    1W        W57812  27.599   3.994   3.001 -0.1684  0.2854  0.1761
    1W        W57813  18.757   4.083   8.856 -0.0025  0.3953 -0.4563
    1W        W57814   5.529   3.306   1.050  0.1550  0.0963  0.0491
    1W        W57815  28.976  10.726   7.966 -0.1909  0.1566 -0.1961
    1W        W57816  15.062  22.178   2.234 -0.1710  0.2302 -0.0320
    1W        W57817  19.040  20.002   2.825  0.2683  0.0351  0.1173
    1W        W57818  20.055   9.775   2.769 -0.4051  0.0410 -0.0752
    1W        W57819   3.505  23.743   6.668 -0.1502  0.0600 -0.1435
    1W        W57820  14.078  13.734   8.109 -0.3022 -0.2869  0.0343
    1W        W57821   6.366   5.003   1.989 -0.0631  0.1476 -0.3442
    1W        W57822   4.252   1.158   3.814 -0.0663  0.1133  0.0979
    1W        W57823  23.732  29.935   0.157  0.0408  0.1578 -0.1180
    1W        W57824  15.162  19.267   2.337 -0.0583  0.0722  0.3433
    1W        W57825  16.438  29.177   6.790 -0.0231 -0.1896 -0.0380
    1W        W57826  26.498  25.509   3.299  0.2398  0.1634 -0.3135
    1W        W57827   2.490  10.619   8.654 -0.3637 -0.0708  0.3439
    1W        W57828  26.558   9.263   1.630  0.0513 -0.0349  0.0641
    1W        W57829   7.363  15.960   7.615  0.0196  0.0578  0.1088
    1W        W57830  16.135   1.084   0.145  0.0196 -0.1303 -0.0729
    1W        W57831  20.647  21.996   0.084  0.2226  0.0787 -0.2090
    1W        W57832  16.148  27.979   7.519 -0.0050 -0.1821  0.0319
    1W        W57833  25.365  24.021   0.414  0.1981  0.1850  0.0215
    1W        W57834  20.626   5.548   8.667 -0.0318 -0.1201 -0.1113
    1W        W57835   4.186  17.299   8.506 -0.0993  0.2119 -0.1067
    1W        W57836  13.667  26.253   0.932 -0.2183  0.2215  0.1375
    1W        W57837  23.504  10.154   8.553  0.0837  0.0594  0.0741
    1W        W57838  19.378  19.303   8.213 -0.1027 -0.0276 -0.3592
    1W        W57839  21.503  24.634   1.883  0.1146  0.0265 -0.0093
    1W        W57840  22.233   4.346   7.647  0.1009 -0.1781  0.0879
    1W        W57841   4.342  27.441   0.177  0.1515  0.0801 -0.2729
    1W        W57842   5.925   6.191   0.658 -0.1338 -0.0190  0.0772
    1W        W57843  27.443   4.677   2.784  0.1283 -0.2979  0.2216
    1W        W57844   7.377  25.017   1.784  0.2270 -0.2066 -0.1785
    1W        W57845  16.172   5.611   8.966 -0.3050  0.0505 -0.0101
    1W        W57846  11.094  12.003   3.324 -0.1752  0.0329  0.1634
    1W        W57847  14.491   8.036   1.533  0.1285  0.0441 -0.1387
    1W        W57848  28.849  28.233   0.443 -0.3379 -0.1727  0.0688
    1W        W57849   7.908  11.780   2.623  0.2656  0.2393 -0.0358
    1W        W57850  18.124   8.277   6.081 -0.0276 -0.0001 -0.1935
    1W        W57851   0.006  30.265   7.969 -0.0744 -0.0549  0.2076
    1W        W57852  16.097  10.157   7.239  0.1599 -0.0533 -0.0437
    1W        W57853  26.609  22.284   0.987 -0.0541  0.3510 -0.0508
    1W        W57854  12.129  13.582   0.857 -0.2436 -0.1830  0.0076
    1W        W57855  11.097  23.770   8.447  0.0735  0.1571 -0.2335
    1W        W57856  11.804  14.247   8.426  0.0480 -0.2300  0.2242
    1W        W57857  18.721   2.658   1.478 -0.3938 -0.4374  0.2502
    1W        W57858  27.125  30.193   1.606 -0.0776 -0.1214 -0.0629
    1W        W57859  19.650   5.283   1.693 -0.3840  0.0047 -0.3309
    1W        W57860  10.003  14.478   1.859  0.2537 -0.1441  0.0199
    1W        W57861  21.491  26.425   1.232  0.2302 -0.0954  0.2679
    1W        W57862  17.599  22.492   1.304  0.1972  0.2335  0.0611
    1W        W57863  12.440   2.204   2.641 -0.2439 -0.2371  0.2074
    1W        W57864  23.951   0.044   8.125 -0.0438  0.0611 -0.1207
    1W        W57865   2.034  17.627   6.448 -0.2443 -0.5111 -0.2351
    1W        W57866  16.847   8.534   7.919  0.0509 -0.1044  0.3495
    1W        W57867  24.579  14.729   8.758 -0.2696  0.1752 -0.0852
    1W        W57868  14.014   7.854   1.327 -0.3029 -0.2922 -0.2619
    1W        W57869  15.479  21.143   2.838 -0.0590  0.1379 -0.1161
    1W        W57870  13.482  25.814   0.515 -0.3467 -0.1309 -0.0805
    1W        W57871  24.495  29.812   3.196 -0.0238 -0.2769  0.0421
    1W        W57872   7.028  24.696   0.902 -0.0632 -0.0985 -0.1975
    1W        W57873  25.148  19.801   0.061  0.1169  0.2434 -0.2838
    1W        W57874  24.755  13.544   0.640  0.2744  0.0046  0.1366
    1W        W57875  11.329  14.221   8.283 -0.0245  0.1021 -0.2186
    1W        W57876  13.872   1.240   2.620  0.0565 -0.0023  0.0430
    1W        W57877   6.284  13.006   0.168 -0.0086  0.4340 -0.1154
    1W        W57878  11.130  12.399   0.997 -0.2286 -0.1451  0.0267
    1W        W57879  11.337  25.486   7.788 -0.2420 -0.0303  0.0391
    1W        W57880  26.606   0.442   2.093 -0.0755  0.0402 -0.0285
    1W        W57881  22.938  16.364   6.611  0.0628  0.1175  0.1010
    1W        W57882  16.840  24.988   7.536 -0.0901  0.0087 -0.0503
    1W        W57883  13.651  24.731   2.964 -0.1923  0.0810 -0.0086
    1W        W57884  14.354   5.058   2.241  0.1689  0.0291 -0.0151
    1W        W57885  21.668  21.998   6.533 -0.0236  0.0877  0.4118
    1W        W57886  20.942  13.360   8.410 -0.1534 -0.0062  0.4695
    1W        W57887   2.537  27.982   2.197  0.3160 -0.0452  0.0484
    1W        W57888   7.693  16.322   6.650  0.1499  0.0273 -0.0420
    1W        W57889   9.735   5.981   0.986 -0.0789 -0.2527 -0.0046
    1W        W57890  20.947  13.878   0.611  0.1919  0.1445  0.0419
    1W        W57891   5.562  20.827   9.148  0.1880  0.1195  0.0187
    1W        W57892  11.396   4.056   1.648  0.1627  0.1281  0.2580
    1W        W57893  10.741  20.706   8.100  0.2868 -0.1779 -0.3893
    1W        W57894   5.362  21.417   0.740 -0.2363  0.1196  0.1493
    1W        W57895  25.240   8.609   6.821 -0.1212  0.2052  0.0490
    1W        W57896  20.508  14.842   6.803  0.0348  0.0396 -0.2750
    1W        W57897  25.938   5.428   0.090  0.0235 -0.2509  0.2233
    1W        W57898   8.077  19.256   1.387  0.0946 -0.0169  0.3348
    1W        W57899   4.778  11.239   2.333 -0.1878 -0.1284 -0.1532
    1W        W57900   9.647  15.271   8.966  0.2266 -0.0166  0.0784
    1W        W57901  21.272  22.313   8.290 -0.0229 -0.2223  0.0405
    1W        W57902  30.079  12.865   7.681  0.0194  0.0800 -0.1406
    1W        W57903  12.795   2.685   1.330  0.1426 -0.0350 -0.0270
    1W        W57904  29.415   1.994   3.781 -0.2277 -0.3156 -0.1436
    1W        W57905  16.892  12.977   0.070  0.0850 -0.2193  0.2954
    1W        W57906  23.005   1.911   1.038 -0.1656  0.0625  0.0184
    1W        W57907  18.109  29.591   8.769 -0.0705  0.2848  0.1880
    1W        W57908   2.571  13.516   1.746  0.0247  0.0936 -0.2745
    1W        W57909  30.131  29.543   7.975 -0.0640  0.0048  0.1611
    1W        W57910  27.864  20.033   0.885  0.3096  0.1788  0.0669
    1W        W57911   3.653  13.797   2.119 -0.0003  0.0538  0.1567
    1W        W57912  12.812  17.265   2.951 -0.1496  0.0988 -0.2299
    1W        W57913  25.187   3.306   1.644  0.3554 -0.4847  0.0264
    1W        W57914   0.522   1.706   7.720  0.3493 -0.1491 -0.1205
    1W        W57915  30.332   8.368   2.477  0.2569  0.1208 -0.2404
    1W        W57916  16.751  13.271   2.902 -0.1494 -0.1267  0.1275
    1W        W57917   1.191   1.736   1.647 -0.0388  0.2179  0.0931
    1W        W57918  29.905   9.611   7.912 -0.2674  0.1188 -0.0216
    1W        W57919  26.625  26.136   2.764 -0.1467 -0.1615  0.0495
    1W        W57920  24.222   3.856   7.383  0.1973 -0.5332 -0.0288
    1W        W57921   4.772   9.057   0.671  0.2468  0.0470 -0.5246
    1W        W57922   8.746  27.757   1.789  0.0651  0.1075  0.1146
    1W        W57923  13.758  15.485   7.301  0.0927 -0.1487 -0.0992
    1W        W57924  30.185   6.472   1.203 -0.0354 -0.1767 -0.0637
    1W        W57925  28.800   3.385   8.782 -0.1549  0.2184  0.1204
    1W        W57926  13.394   3.913   7.733  0.0879 -0.1399  0.4217
    1W        W57927   7.982  22.268   5.989  0.0417 -0.0983  0.0221
    1W        W57928  28.361   4.133   0.463  0.0198  0.0249 -0.0063
    1W        W57929  21.895  26.544   8.783  0.0252 -0.0702 -0.1638
    1W        W57930  12.761  18.690   0.031  0.0369 -0.0202 -0.2116
    1W        W57931  26.380   7.148   1.482  0.0979  0.1373 -0.2783
    1W        W57932  10.183   2.642   8.875  0.1431 -0.0526  0.1359
    1W        W57933  12.767  29.650   7.534  0.1433 -0.1655  0.5381
    1W        W57934  14.099   3.629   8.969  0.1791  0.1599 -0.1402
    1W        W57935  11.470  29.928   1.321 -0.0720 -0.0720  0.0896
    1W        W57936  22.699   9.531   7.503 -0.1467 -0.0879 -0.1155
    1W        W57937  27.866  14.464   0.291  0.1618  0.0794  0.2829
    1W        W57938  15.936   1.255   0.572 -0.2058  0.4412  0.2619
    1W        W57939  17.966   8.329   9.120  0.2396 -0.0259 -0.1531
    1W        W57940   6.097   8.475   0.764  0.0164  0.2865 -0.2000
    1W        W57941  12.407  20.260   0.932  0.3789 -0.0155 -0.4553
    1W        W57942   7.345  19.666   7.647 -0.1960 -0.1347 -0.1162
    1W        W57943  20.781  23.221   0.010  0.2498 -0.0763 -0.0014
    1W        W57944  25.481  27.339   2.619  0.1961  0.2502 -0.2017
    1W        W57945  16.433   7.824   7.608 -0.2844 -0.1515 -0.3621
    1W        W57946   6.286  24.485   1.255 -0.0068 -0.0502 -0.0863
    1W        W57947  23.385  13.009   9.120 -0.2643 -0.1539  0.0082
    1W        W57948  23.490   7.810   6.550  0.1868 -0.0569  0.4299
    1W        W57949  17.029   6.002   2.145  0.1758  0.2503  0.1345
    1W        W57950   1.847  23.442   0.541  0.1340 -0.2265 -0.0534
    1W        W57951  20.615  25.476   2.357  0.3183 -0.2037 -0.4241
    1W        W57952  14.809  29.743   0.531  0.1151  0.0912 -0.2120
    1W        W57953  29.039  22.860   8.244 -0.1771 -0.0721 -0.0178
    1W        W57954  16.498  13.709   2.989 -0.1541 -0.1755 -0.3858
    1W        W57955  22.752   5.198   1.106  0.0207  0.0126 -0.1223
    1W        W57956   0.839   2.546   0.906 -0.1812 -0.1738  0.2272
    1W        W57957   5.294  15.131   7.221  0.2308  0.0533 -0.4019
    1W        W57958  21.415  12.927   1.742  0.0321  0.2063  0.1007
    1W        W57959  27.735  14.668   0.767  0.2773  0.1300  0.1750
    1W        W57960  25.668  13.560   0.036 -0.0181 -0.1240  0.0351
    1W        W57961   5.854   4.610   9.089 -0.1413  0.0563  0.0736
    1W        W57962  23.186   3.832   9.170 -0.1513  0.1962  0.2779
    1W        W57963  23.281  29.619   2.153  0.1174 -0.0734  0.0014
    1W        W57964  15.300   6.693   1.132 -0.0101 -0.3390 -0.2576
    1W        W57965   5.583   4.207   3.223 -0.0592 -0.0742 -0.3328
    1W        W57966  28.082  19.665   0.568  0.4007  0.2810  0.2286
    1W        W57967   2.813  17.557   6.764  0.2236 -0.1005  0.0988
    1W        W57968  28.395  23.730   7.917 -0.1123  0.0960  0.0725
    1W        W57969  10.887  23.288   8.564 -0.2323 -0.5989 -0.2419
    1W        W57970  21.572  25.543   7.670 -0.2769 -0.1661 -0.2602
    1W        W57971   0.486   7.796   3.056  0.1154  0.2941 -0.1291
    1W        W57972   2.594  26.507   1.656  0.1052  0.1437  0.1590
    1W        W57973  14.230  26.671   8.875 -0.0521 -0.0131  0.0918
    1W        W57974  29.063  28.324   2.949  0.3886 -0.0776 -0.1193
    1W        W57975  11.290  15.970   1.047  0.2678 -0.2239  0.2259
    1W        W57976  23.493  10.421   9.063  0.1921  0.2661 -0.0485
    1W        W57977  21.874  16.246   7.394 -0.4239  0.2644 -0.1762
    1W        W57978  16.590  28.290   6.917 -0.0342  0.1461 -0.0259
    1W        W57979  23.992   8.274   7.086  0.0284  0.1081 -0.1336
    1W        W57980  19.557  15.098   7.596 -0.0306  0.0573 -0.0455
    1W        W57981   5.086   6.703   8.803 -0.4813  0.2081  0.0338
    1W        W57982  14.944  13.036   2.498  0.2229 -0.2036  0.1116
    1W        W57983  21.514   1.378   1.568 -0.0024  0.3076  0.1595
    1W        W57984  26.190  21.227   8.110  0.0224  0.1836 -0.0454
    1W        W57985   5.223  19.789   9.087 -0.1203 -0.1065  0.1495
    1W        W57986  17.776  15.043   8.455  0.1814  0.3737  0.2657
    1W        W57987   8.951   4.010   2.524 -0.0192  0.0132 -0.1200
    1W        W57988   8.965  10.783   8.907  0.1854  0.0218  0.1998
    1W        W57989  12.252  13.190   7.724  0.0774 -0.1257  0.0654
    1W        W57990  27.375  17.363   6.894  0.4238  0.3079 -0.0992
    1W        W57991  16.665  21.990   5.670 -0.0454 -0.2581  0.1045
    1W        W57992  13.603   3.348   2.341 -0.0215  0.2519 -0.0328
    1W        W57993  25.460  27.609   3.257 -0.0645  0.0938 -0.2675
    1W        W57994   5.705  17.289   7.491  0.0695 -0.1916  0.1820
    1W        W57995  15.725   7.988   0.291  0.2142 -0.1572  0.2061
    1W        W57996   8.587  22.363   8.823  0.0516  0.1564 -0.2849
    1W        W57997   8.402   0.562   6.710 -0.1624 -0.3110  0.3169
    1W        W57998   7.286  26.291   1.443 -0.2518  0.0844 -0.2380
    1W        W57999  21.389   6.782   8.408  0.2392 -0.0106 -0.0770
    1W        W58000   8.161  15.903   2.558  0.1329  0.0510  0.1244
    1W        W58001   9.235   3.653   1.859 -0.2691  0.3471 -0.0219
    1W        W58002   3.204  14.078   1.441 -0.0537  0.0017 -0.1790
    1W        W58003   2.774  24.171   2.376 -0.1468 -0.1503 -0.0239
    1W        W58004  22.169   0.456   0.039  0.1859 -0.1216 -0.3608
    1W        W58005   4.524  12.807   1.487  0.1454 -0.0262  0.0523
    1W        W58006  20.422  10.464   8.392  0.3256 -0.2029 -0.0876
    1W        W58007  14.986  17.554   0.542  0.1613 -0.0713  0.0093
    1W        W58008  24.575  20.998   1.352 -0.0888  0.1510  0.0009
    1W        W58009  13.072  20.216   8.376 -0.2548 -0.1408  0.0963
    1W        W58010  16.433   9.960   1.196 -0.0824  0.0466  0.0204
    1W        W58011  15.907  30.068   2.744 -0.2341  0.2408  0.0428
    1W        W58012  21.315  10.175   0.484  0.1270  0.3559  0.0766
    1W        W58013  19.362   9.290   0.616  0.2980 -0.0871  0.0862
    1W        W58014  20.752  23.168   6.092  0.0799  0.1474  0.0984
    1W        W58015  22.305  22.421   1.641  0.2026 -0.0747 -0.1522
    1W        W58016  14.707   7.427   2.222 -0.4191  0.0980 -0.0349
    1W        W58017  10.435   5.218   1.859 -0.0997  0.0441 -0.0088
    1W        W58018   2.399  21.804   7.697  0.0569 -0.1085  0.4261
    1W        W58019  16.493  12.082   1.002 -0.0430  0.3689  0.0963
    1W        W58020  14.881  12.028   7.399 -0.0395 -0.1723  0.0444
    1W        W58021  28.639  11.653   0.845  0.3324  0.1863  0.0374
    1W        W58022   2.572  30.338   8.709  0.3039 -0.2796  0.1145
    1W        W58023   9.225   3.308   6.236  0.1080  0.0698 -0.1525
    1W        W58024  22.908   0.450   1.518 -0.2392  0.1705 -0.0605
    1W        W58025  15.941  17.630   7.344 -0.2600 -0.0612 -0.2203
    1W        W58026  19.684  10.943   8.391  0.2301 -0.2362  0.0189
    1W        W58027  17.366   1.026   2.161  0.2950 -0.3046 -0.1162
    1W        W58028  21.774  18.221   8.184 -0.0069 -0.3212 -0.1475
    1W        W58029  16.013   7.820   0.646 -0.2488 -0.2781 -0.1847
    1W        W58030  15.038  20.773   1.516 -0.0173 -0.1611 -0.0012
    1W        W58031   7.025  18.500   8.862 -0.1078 -0.1510  0.0289
    1W        W58032  16.757  13.021   2.137 -0.0021 -0.0564  0.3375
    1W        W58033  28.086   0.354   0.357 -0.2221 -0.0405 -0.1837
    1W        W58034   9.001  23.268   0.415 -0.1140 -0.0582  0.0609
    1W        W58035  24.967   7.937   2.277 -0.0897 -0.2721  0.3657
    1W        W58036   6.897  21.978   8.138 -0.0854 -0.1183 -0.2637
    1W        W58037  10.013   7.667   0.206 -0.0568 -0.0000  0.0017
    1W        W58038  17.799  20.402   7.506  0.1255  0.0444 -0.0340
    1W        W58039  17.862  28.867   6.990 -0.2340  0.0984  0.0223
    1W        W58040  16.020  17.338   7.999 -0.1450  0.0991  0.0956
    1W        W58041  28.916   3.720   7.826 -0.3161 -0.0453  0.2048
    1W        W58042  13.091  26.051   8.885  0.1879 -0.0846 -0.1330
    1W        W58043   4.785  26.806   8.996 -0.1946  0.0438  0.0716
    1W        W58044  11.781  22.376   6.504  0.0806 -0.1006 -0.0942
    1W        W58045   3.631  13.084   0.373 -0.1021 -0.0756 -0.0141
    1W        W58046   6.995  22.136   1.714  0.0445  0.0360  0.0479
    1W        W58047  14.245  29.093   8.718 -0.0688 -0.1727 -0.5120
    1W        W58048  10.728  17.987   6.223  0.0163 -0.0188  0.0239
    1W        W58049  18.957  25.410   7.082  0.2540  0.2096 -0.1093
    1W        W58050  21.184  13.775   7.657  0.2513  0.2335 -0.2754
    1W        W58051  10.450   7.421   1.480 -0.0729 -0.0019 -0.0768
    1W        W58052  25.968  23.273   6.643 -0.2667 -0.2256 -0.0316
    1W        W58053  24.685   4.146   7.279  0.1167  0.1379 -0.2175
    1W        W58054   9.286  17.975   7.558 -0.3773 -0.4872 -0.2075
    1W        W58055  14.440   3.636   6.331  0.0978 -0.0001  0.3829
    1W        W58056   5.970  16.290   1.055  0.4633 -0.0367 -0.1252
    1W        W58057  12.154   3.738   6.202 -0.5138  0.0468  0.1643
    1W        W58058  24.345  10.249   1.906 -0.0821 -0.2024 -0.0846
    1W        W58059  17.607   7.127   8.896 -0.1891 -0.0682 -0.1488
    1W        W58060  15.924  21.017   0.799  0.2749  0.0511  0.1239
    1W        W58061  17.811  27.789   1.082 -0.0801  0.0081  0.1593
    1W        W58062  17.326  17.635   1.315  0.1288  0.2551 -0.2746
    1W        W58063  25.476  15.364   8.195  0.0054 -0.0730 -0.2166
    1W        W58064  23.988  24.740   7.310  0.2089  0.4234 -0.1540
    1W        W58065  24.436  11.852   7.490 -0.1263  0.1603  0.1356
    1W        W58066   5.542  23.585   8.018  0.0235 -0.1328  0.3323
    1W        W58067  17.182  23.545   0.516  0.0090  0.0013  0.1895
    1W        W58068  13.973  18.087   1.414 -0.1688 -0.1545 -0.1209
    1W        W58069   0.303   6.381   6.859 -0.1202 -0.2617  0.0394
    1W        W58070  18.226  28.617   7.827  0.3327  0.0255 -0.3351
    1W        W58071   5.928   2.163   2.293  0.2115  0.3518  0.1374
    1W        W58072   6.647   3.207   2.038 -0.1114 -0.0514 -0.0335
    1W        W58073  24.096  26.201   0.276 -0.1406  0.0514  0.0886
    1W        W58074   0.491  26.542   0.565  0.2118 -0.0682  0.0686
    1W        W58075   5.405  24.144   1.271 -0.5452 -0.2110 -0.2073
    1W        W58076  20.818  10.282   0.461  0.1942 -0.0789 -0.0851
    1W        W58077   6.239   1.227   8.936 -0.2085 -0.0420  0.2845
    1W        W58078  28.413   0.059   6.831  0.2164 -0.1851  0.1212
    1W        W58079  28.733  11.416   6.801  0.0171 -0.1365 -0.1219
    1W        W58080   7.020   0.689   0.231  0.0312 -0.0235 -0.2194
    1W        W58081  19.258   4.777   8.222 -0.2273 -0.2144  0.0254
    1W        W58082  26.924   2.254   3.630 -0.1501  0.0403 -0.4044
    1W        W58083  20.706  19.257   8.153  0.2903  0.2315 -0.2254
    1W        W58084  12.642  19.835   8.007 -0.2711  0.3153 -0.0352
    1W        W58085  13.680  25.453   8.261  0.0746  0.1431  0.0674
    1W        W58086  27.381  25.676   0.501  0.0537  0.1594  0.0284
    1W        W58087  30.000  14.607   8.797  0.1101  0.0151  0.0437
    1W        W58088   6.819  26.663   2.579  0.0926 -0.2786 -0.2200
    1W        W58089   9.488  14.362   1.961  0.3188  0.0476 -0.0121
    1W        W58090   8.437   2.081   3.704 -0.1287 -0.2331 -0.0910
    1W        W58091   1.938  27.973   2.679 -0.3286 -0.4297 -0.0985
    1W        W58092   7.482  21.550   6.879  0.0192 -0.2998  0.2123
    1W        W58093  23.263  16.523   6.986 -0.1613 -0.0398 -0.1207
    1W        W58094  12.796   9.220   1.392 -0.0732 -0.1233  0.1784
    1W        W58095   6.779  25.494   7.050 -0.0397  0.0225  0.2094
    1W        W58096  20.225   9.671   7.382  0.0470 -0.2436 -0.1121
    1W        W58097   9.134   7.996   0.964  0.0791  0.2320 -0.0848
    1W        W58098  19.783  22.892   0.281  0.2423  0.0183  0.1399
    1W        W58099  24.387  11.775   1.875  0.0076  0.0769  0.0538
    1W        W58100  26.280   1.035   2.834  0.3186  0.1188 -0.3362
    1W        W58101  29.459  19.545   1.095  0.0025  0.3396  0.1993
    1W        W58102   9.752   2.275   1.729 -0.0249 -0.0250 -0.0353
    1W        W58103   3.380   0.162   1.498  0.0449 -0.0056  0.1842
    1W        W58104  18.330  14.702   2.315  0.1152  0.0024  0.0740
    1W        W58105  12.414  17.113   8.001 -0.2472  0.0312 -0.3040
    1W        W58106   0.863  21.295   8.755  0.0896  0.0549  0.0115
    1W        W58107   8.239  29.138   6.264 -0.0132 -0.3886  0.0500
    1W        W58108  27.787  12.948   9.186 -0.0116  0.0327 -0.2195
    1W        W58109   4.854   4.295   6.549 -0.3398  0.3159  0.0158
    1W        W58110  27.459   1.870   1.821 -0.0915 -0.0238  0.2139
    1W        W58111   7.787  28.812   0.561  0.1167 -0.1692 -0.0779
    1W        W58112   2.032  10.637   8.317  0.0542  0.0821  0.1630
    1W        W58113   6.269  15.103   0.818  0.0717  0.1207  0.0064
    1W        W58114   0.910   0.526   2.609  0.0047 -0.1508 -0.1999
    1W        W58115   8.463  16.534   6.723  0.1560 -0.1471  0.1880
    1W        W58116  21.368   6.710   3.113 -0.0697 -0.1806 -0.0308
    1W        W58117  13.644   9.479   3.263 -0.0965  0.0675  0.1158
    1W        W58118   1.500  24.930   8.520  0.0316  0.2210  0.0719
    1W        W58119   2.064  27.379   6.912  0.2350 -0.0170 -0.1615
    1W        W58120   3.161   4.174   1.688  0.0925  0.1405 -0.0509
    1W        W58121  16.761  27.026   0.241 -0.1680 -0.2023  0.0110
    1W        W58122   3.402   4.270   6.635  0.1061  0.1637  0.0607
    1W        W58123  24.483  17.111   2.215  0.3503  0.0725 -0.1360
    1W        W58124   5.004   6.368   3.124  0.0960  0.0331  0.1575
    1W        W58125  20.658  16.196   8.023  0.3163  0.0401 -0.3896
    1W        W58126   9.581   1.090   2.126  0.2177 -0.0525 -0.0877
    1W        W58127  12.529   2.537   6.487  0.0860  0.2710  0.1707
    1W        W58128   6.976   4.626   7.356 -0.1633 -0.0302  0.0123
    1W        W58129  20.594   4.953   7.110  0.1854  0.0215 -0.1195
    1W        W58130   9.389  20.272   0.257 -0.2427  0.1898 -0.1010
    1W        W58131  21.645  15.143   8.252  0.1057 -0.3866  0.2962
    1W        W58132  27.739  16.900   0.306  0.2314 -0.0544 -0.0157
    1W        W58133  28.337   1.345   0.117 -0.1157 -0.4477 -0.0427
    1W        W58134  26.190  28.349   9.181  0.0095 -0.1188  0.1552
    1W        W58135   4.672   1.434   8.169  0.1080  0.0638  0.0414
    1W        W58136  23.392   2.351   8.304 -0.2310 -0.3306  0.4306
    1W        W58137  10.470  16.303   9.228 -0.3788 -0.3652 -0.0613
    1W        W58138  24.184   2.447   8.365 -0.0837 -0.0042 -0.2513
    1W        W58139  22.073  24.604   6.471 -0.0295  0.4106 -0.2575
    1W        W58140   8.578  23.593   7.207  0.0331 -0.1495  0.2311
    1W        W58141  23.741  22.786   0.651  0.0010 -0.1240  0.0342
    1W        W58142  16.280   7.221   8.303 -0.1210 -0.4320 -0.2044
    1W        W58143   7.805   9.597   1.923  0.0144 -0.0484 -0.1087
    1W        W58144  15.899   5.883   1.233 -0.2824 -0.1077 -0.3361
    1W        W58145  10.708  18.278   1.006  0.0655 -0.0905  0.0078
    1W        W58146   1.564  21.529   7.561  0.1255  0.1938  0.2841
    1W        W58147  28.574  29.332   7.656  0.2727  0.1330 -0.0124
    1W        W58148  18.535  10.395   6.982  0.0871 -0.1114  0.0239
    1W        W58149   3.734   1.674   2.413  0.2756  0.1287 -0.2257
    1W        W58150   5.826   2.026   2.801  0.2060  0.1792 -0.1489
    1W        W58151  21.996   1.037   7.958  0.1457 -0.5650 -0.5249
    1W        W58152   8.865   5.946   7.432  0.2602 -0.1472 -0.1716
    1W        W58153  12.446   0.452   7.756  0.0005 -0.2919 -0.1600
    1W        W58154  17.125  23.026   0.424  0.0870  0.1105 -0.0491
    1W        W58155  25.351  25.932   2.632 -0.0153 -0.2105  0.0877
    1W        W58156  16.789   4.197   9.061  0.1169 -0.2796 -0.2150
    1W        W58157   0.168   5.859   1.922 -0.3825 -0.0412  0.1002
    1W        W58158   2.650  26.033   8.520  0.0001 -0.0129  0.1536
    1W        W58159  16.426  14.555   8.787 -0.1026 -0.0664  0.3221
    1W        W58160  12.253  21.799   6.859  0.0633 -0.0058  0.2365
    1W        W58161  12.297  29.710   7.386  0.0356  0.0218  0.0011
    1W        W58162   5.876  17.603   6.730  0.1023  0.1371  0.2627
    1W        W58163  21.065   2.232   2.695  0.1847  0.1654  0.2703
    1W        W58164  13.060  13.047   8.179  0.1366 -0.0352 -0.1252
    1W        W58165   0.377   0.071   2.206 -0.0716  0.1977 -0.1701
    1W        W58166   7.815   0.908   8.943 -0.2356  0.0279 -0.0693
    1W        W58167   9.618  27.710   7.861 -0.0869 -0.2053  0.0685
    1W        W58168  20.224  19.239   7.087 -0.0005  0.1931 -0.0725
    1W        W58169  10.178   2.781   7.424  0.1312  0.0318 -0.4659
    1W        W58170   4.539  13.275   1.418  0.1472  0.3675 -0.1783
    1W        W58171   7.980  11.630   0.852 -0.3605 -0.0654 -0.1612
    1W        W58172  24.708  22.974   7.388 -0.2206  0.1953 -0.0660
    1W        W58173  28.026  13.887   8.728 -0.1173 -0.0136  0.1104
    1W        W58174  24.615  20.645   0.522  0.2630 -0.2416 -0.0156
    1W        W58175  19.478   1.660   2.974  0.0190  0.3624 -0.1137
    1W        W58176   9.195  18.470   7.514  0.0532 -0.0241  0.0155
    1W        W58177  14.576   1.645   7.149 -0.0626  0.2841  0.1747
    1W        W58178  15.950  10.615   0.074  0.2095  0.0436 -0.0094
    1W        W58179  17.880  20.118   0.094  0.2871  0.1989  0.0770
    1W        W58180  10.637  23.716   8.785 -0.2413 -0.0725  0.0034
    1W        W58181  18.708  14.486   0.865 -0.0188  0.2661 -0.1211
    1W        W58182   5.102  20.524   1.144  0.0995  0.1901  0.0942
    1W        W58183  20.794   8.002   5.802 -0.1672 -0.1166 -0.0566
    1W        W58184  22.691  29.205   9.039  0.4448 -0.1327 -0.1247
    1W        W58185  11.517  13.578   7.278  0.1792 -0.0482  0.0330
    1W        W58186  13.344  29.541   1.847  0.0512  0.0554  0.0847
    1W        W58187  28.226  10.464   8.467  0.1820  0.1573  0.0222
    1W        W58188  13.296   7.572   8.102  0.3257  0.2058  0.2623
    1W        W58189  30.189  12.693   8.127  0.3227 -0.0619  0.1026
    1W        W58190   6.976  12.359   7.481  0.2230 -0.1548 -0.1009
    1W        W58191  15.197   1.435   8.393 -0.0902 -0.0221 -0.0325
    1W        W58192   5.617  27.003   1.880  0.0087 -0.0596  0.1458
    1W        W58193  12.326  29.182   3.109  0.2477 -0.2106  0.0216
    1W        W58194   5.498  25.226   9.142 -0.0776 -0.0819  0.0176
    1W        W58195   7.538  21.457   0.697 -0.0315 -0.2728  0.2912
    1W        W58196   0.445   2.944   9.148  0.1183 -0.1094 -0.0378
    1W        W58197  29.268  24.933   6.393  0.1929 -0.0115  0.0162
    1W        W58198  11.370  22.225   7.478 -0.0012  0.0360  0.1035
    1W        W58199  26.154  26.731   2.416 -0.4665 -0.3347  0.3513
    1W        W58200  25.267  15.180   7.748 -0.0519 -0.0311 -0.2682
    1W        W58201  10.170   8.230   8.040  0.0012 -0.1199  0.0658
    1W        W58202   3.388   4.417   9.001  0.2176  0.0685 -0.0202
    1W        W58203  15.116  25.622   8.315  0.0490  0.0586  0.2341
    1W        W58204   6.863  27.256   2.158 -0.1214 -0.2333 -0.1415
    1W        W58205  15.780  15.388   1.587  0.1549  0.1493  0.0497
    1W        W58206  27.145   0.202   2.135  0.1526 -0.0483  0.0182
    1W        W58207   3.203  20.632   6.663  0.0651  0.2165  0.2705
    1W        W58208   7.329  26.115   7.106 -0.2307 -0.3101 -0.2787
    1W        W58209  15.347   4.130   7.756  0.1603 -0.1023 -0.1005
    1W        W58210  23.181  19.977   7.772  0.2146 -0.1468 -0.0783
    1W        W58211   4.838  10.633   8.731 -0.0838 -0.2306  0.1675
    1W        W58212   2.608  12.334   8.958 -0.3015  0.2739  0.1533
    1W        W58213  13.333  15.502   7.609 -0.0140 -0.0535 -0.0918
    1W        W58214  13.818  14.393   3.064 -0.0546  0.4273 -0.1143
    1W        W58215  20.895  30.222   6.512  0.1484  0.1087  0.0630
    1W        W58216  14.921  22.875   7.931  0.0474  0.0511 -0.2185
    1W        W58217   8.172   5.693   9.052  0.1815 -0.1110  0.0837
    1W        W58218  16.530  27.421   0.983  0.2700  0.1491  0.2385
    1W        W58219   3.529  16.765   6.269  0.1699 -0.1246  0.1874
    1W        W58220  22.146  14.019   1.516  0.4031 -0.2207 -0.1170
    1W        W58221  22.601   3.032   8.748 -0.2811  0.1597 -0.2605
    1W        W58222   7.936  12.935   1.770  0.2007  0.0665  0.0260
    1W        W58223  19.497   2.751   2.009  0.1892  0.0734 -0.0149
    1W        W58224  14.855  28.092   1.748 -0.1641  0.0082 -0.2508
    1W        W58225  18.686   2.684   0.905  0.4128  0.0926  0.1640
    1W        W58226   0.133  14.920   2.061 -0.2267  0.1453  0.0185
    1W        W58227  17.297   6.358   5.929  0.0834 -0.1357 -0.0323
    1W        W58228  24.880  22.133   0.190  0.0369 -0.0605 -0.2568
    1W        W58229  27.184  26.143   2.879  0.0627  0.1667  0.2309
    1W        W58230  14.136   2.365   0.349  0.0694 -0.0071  0.2713
    1W        W58231  22.957   2.244   7.958 -0.2253  0.0001 -0.2484
    1W        W58232  11.381  23.564   6.981  0.2535  0.0077 -0.0340
    1W        W58233  23.564   4.366   0.601 -0.0400  0.1491 -0.0183
    1W        W58234   5.771   8.427   7.891 -0.0632  0.2534  0.1732
    1W        W58235  30.333  12.621   0.502 -0.0079 -0.0943  0.1307
    1W        W58236  10.798   8.050   1.023  0.0004 -0.2980 -0.3150
    1W        W58237  26.637  13.916   0.846  0.1515  0.0255 -0.0016
    1W        W58238  14.994   4.581   2.543  0.0785 -0.2952  0.1857
    1W        W58239  24.206   9.641   0.401 -0.0756  0.1656 -0.2842
    1W        W58240   5.844  23.465   7.440  0.2004 -0.1704  0.1587
    1W        W58241  19.635   4.194   2.664  0.0635  0.2972  0.1021
    1W        W58242  10.406   4.875   0.283 -0.3006 -0.2893  0.3319
    1W        W58243  13.824  22.099   2.042 -0.2625  0.0413  0.0503
    1W        W58244   0.396  13.648   0.204  0.1044 -0.3102  0.1444
    1W        W58245  29.996  28.024   2.953 -0.0937  0.0364 -0.0244
    1W        W58246  24.043  26.361   2.991 -0.0790  0.0728  0.0307
    1W        W58247  15.703  19.887   7.027  0.1561 -0.3224  0.0331
    1W        W58248  19.961   6.349   1.388  0.3370 -0.2051  0.1313
    1W        W58249  18.142  12.701   9.261  0.0023 -0.1342 -0.2234
    1W        W58250  30.031  21.990   9.196 -0.1415 -0.0697  0.2092
    1W        W58251  25.018  28.354   3.529  0.2267  0.0416  0.0346
    1W        W58252   6.484  29.729   3.292  0.0012 -0.5445 -0.0940
    1W        W58253  25.399  12.764   1.204 -0.0327 -0.0236  0.2221
    1W        W58254  18.675  21.837   5.880 -0.1390  0.2411 -0.3757
    1W        W58255  20.323  20.087   7.198 -0.1396  0.1819 -0.0040
    1W        W58256  19.784   1.336   0.969  0.0455  0.3470  0.1955
    1W        W58257  23.223  28.026   7.064  0.1084  0.0158 -0.1890
    1W        W58258  26.394  13.879   1.688  0.0291  0.2676  0.1531
    1W        W58259  22.123   4.058   8.378 -0.0949  0.2797 -0.0483
    1W        W58260   9.996   0.075   1.010  0.0635 -0.2516  0.0579
    1W        W58261  19.082  12.053   8.735  0.0891  0.2162  0.0021
    1W        W58262   7.740  26.632   2.990  0.1326  0.1485  0.4489
    1W        W58263   7.301   5.468   8.369 -0.1765  0.4442 -0.1151
    1W        W58264  13.595  16.023   2.170 -0.2710 -0.0266  0.3570
    1W        W58265  24.265   7.494   2.572  0.1689 -0.0936  0.1244
    1W        W58266  29.449  25.024   0.760  0.0726  0.1318  0.1628
    1W        W58267  12.673  13.541   8.434  0.5152 -0.0001  0.0199
    1W        W58268  15.447   8.487   7.809  0.4200  0.2466  0.1805
    1W        W58269  18.812  21.811   7.226 -0.1419 -0.0191  0.0231
    1W        W58270   7.789  22.714   8.117  0.1121  0.0495  0.0249
    1W        W58271  12.549  24.854   2.289 -0.0590 -0.2286  0.0798
    1W        W58272  29.145  26.554   0.513 -0.0086  0.0170  0.1029
    1W        W58273   3.364  16.195   0.654  0.1030  0.0849 -0.3698
    1W        W58274   0.481   8.298   2.313 -0.2837 -0.0257  0.0709
    1W        W58275  28.791  19.073   0.726 -0.2619  0.2535  0.4931
    1W        W58276  13.265  23.714   1.684 -0.0608  0.0348  0.5157
    1W        W58277   5.882   1.581   8.191  0.2125 -0.1890 -0.0167
    1W        W58278   7.361   8.957   8.198 -0.4169 -0.0344 -0.1985
    1W        W58279  18.280  16.762   2.510 -0.0124 -0.1274 -0.0358
    1W        W58280   7.860   9.285   2.376  0.0940  0.0306 -0.3091
    1W        W58281   1.963  23.278   1.077 -0.2447  0.1657  0.0999
    1W        W58282   3.705  26.246   6.725 -0.3767  0.1831 -0.0442
    1W        W58283  10.933  26.964   1.897  0.3273  0.2669  0.0813
    1W        W58284   1.933  12.395   2.057  0.0022  0.0741 -0.1887
    1W        W58285   9.818  27.484   6.992  0.1753  0.0894  0.0784
    1W        W58286  28.650  25.381   6.793 -0.1739  0.3756  0.0643
    1W        W58287  25.188   6.317   8.679 -0.1012  0.1899 -0.0115
    1W        W58288  29.301  22.385   8.060  0.1615 -0.1279 -0.1742
    1W        W58289  21.913   8.533   1.184 -0.1191 -0.0865 -0.2083
    1W        W58290  12.821   3.325   7.174  0.0713  0.0838 -0.2589
    1W        W58291  25.509  26.629   3.725 -0.0206 -0.0306 -0.0710
    1W        W58292   3.484  18.765   6.874  0.0947 -0.3719  0.0303
    1W        W58293   9.632   9.954   6.922 -0.0536  0.0769  0.2748
    1W        W58294  17.376  10.170   6.601 -0.0795 -0.1430 -0.2035
    1W        W58295  14.974   3.062   6.361  0.1523  0.1892  0.0917
    1W        W58296  15.500   1.024   7.621 -0.0445 -0.1102 -0.2729
    1W        W58297   7.671  10.922   2.064  0.0956 -0.0047 -0.0739
    1W        W58298  18.315  28.478   0.575  0.0410 -0.2916  0.2604
    1W        W58299   9.595  20.751   0.203 -0.1804 -0.1831 -0.1777
    1W        W58300   0.083  13.917   6.903  0.1521  0.0687  0.0486
    1W        W58301  12.748  28.716   0.351  0.2748 -0.1715  0.3077
    1W        W58302  24.595   4.464   8.214  0.0248 -0.0094 -0.0246
    1W        W58303   3.447  24.872   7.355 -0.0635 -0.0490 -0.0437
    1W        W58304  19.157  27.347   7.259  0.0377  0.1892  0.1377
    1W        W58305   7.790  29.375   2.527  0.1765  0.1227 -0.1169
    1W        W58306   6.705  20.605   0.741 -0.0189 -0.0768  0.0235
    1W        W58307   8.779   5.834   0.653 -0.0887 -0.3632 -0.0554
    1W        W58308  13.450  16.359   1.175 -0.1145 -0.2944  0.2693
    1W        W58309  24.156  28.830   9.173  0.1205  0.0681 -0.3531
    1W        W58310  21.166   9.086   6.523  0.0616  0.3519 -0.1251
    1W        W58311  21.762  16.075   7.895  0.0057 -0.0406 -0.1191
    1W        W58312  12.820   5.380   1.208 -0.1200 -0.1304 -0.2820
    1W        W58313   1.051  12.978   7.819 -0.0257  0.2377 -0.0136
    1W        W58314  15.785   1.942   2.626  0.0759  0.4750 -0.0655
    1W        W58315  23.614  15.349   1.787  0.0603  0.2005  0.0173
    1W        W58316  21.423   9.533   7.564  0.1982 -0.1190 -0.0512
    1W        W58317  17.793  21.686   0.346 -0.0442  0.1158 -0.3088
    1W        W58318   0.339  21.263   7.200  0.0034 -0.0945  0.2716
    1W        W58319  16.619   1.042   0.195  0.1255  0.1810  0.3301
    1W        W58320   3.055   8.884   7.978 -0.0563  0.2616 -0.2337
    1W        W58321  19.950  12.249   8.542 -0.1278  0.0698 -0.1033
    1W        W58322   9.693  19.882   0.419  0.1283 -0.0309 -0.2486
    1W        W58323  12.874   5.599   8.451 -0.0567 -0.1339 -0.1324
    1W        W58324   5.117  26.873   8.570 -0.1556  0.2723  0.1947
    1W        W58325  14.314  24.641   7.074 -0.3680 -0.0453  0.2103
    1W        W58326   1.445  12.664   8.173  0.0796 -0.0741  0.0753
    1W        W58327  18.991  21.948   0.949 -0.2966 -0.2709 -0.1029
    1W        W58328  16.953   6.082   0.448  0.2241 -0.0786  0.1842
    1W        W58329   9.956  12.487   7.314  0.1597  0.0098 -0.0297
    1W        W58330  28.810  22.937   0.122 -0.2515 -0.0147 -0.0673
    1W        W58331  28.736  19.047   8.938  0.1038  0.1598 -0.0241
    1W        W58332  29.321   1.458   1.544  0.3223 -0.2272 -0.3185
    1W        W58333   2.606   0.549   2.692  0.0504 -0.2751 -0.0715
    1W        W58334   2.085  24.043   1.513 -0.1841  0.3661  0.0501
    1W        W58335  17.433   7.375   6.827  0.0770  0.0255 -0.0824
    1W        W58336   0.709   6.476   1.745 -0.0212 -0.0808  0.1552
    1W        W58337  24.281  14.979   6.905 -0.0690 -0.0322  0.2325
    1W        W58338  22.806  16.944   0.807  0.0677  0.0357 -0.1713
    1W        W58339  11.344   6.088   1.717 -0.5632  0.0235  0.0514
    1W        W58340  15.353   8.472   1.084  0.0784 -0.0920  0.0801
    1W        W58341  19.848  27.178   8.311 -0.0009  0.0399 -0.0287
    1W        W58342  16.898  28.210   1.293 -0.0436  0.0942 -0.2410
    1W        W58343  21.430  26.544   7.565  0.1829 -0.0164 -0.1761
    1W        W58344  20.833   1.115   8.671 -0.0092  0.1621 -0.1232
    1W        W58345   7.402   4.862   2.019  0.0478 -0.0411 -0.1955
    1W        W58346  11.588  22.722   1.581  0.0507  0.0244  0.0819
    1W        W58347  16.088  11.961   1.188  0.2947 -0.1342  0.1039
    1W        W58348  29.722  10.026   1.396 -0.0335  0.0550  0.0041
    1W        W58349   0.274  19.514   8.423  0.0275  0.0586 -0.2355
    1W        W58350  18.620  10.050   7.375 -0.2422  0.3603 -0.0157
    1W        W58351   1.182   4.997   1.211 -0.0923  0.1033  0.0710
    1W        W58352   8.423  11.693   7.712  0.1971 -0.0841  0.0497
    1W        W58353   9.503  21.530   6.413 -0.0645  0.3025 -0.1006
    1W        W58354  14.390  13.792   7.701  0.1093  0.1249 -0.0402
    1W        W58355  11.164  11.994   2.263 -0.3100  0.0151 -0.0894
    1W        W58356   6.428  28.558   8.692  0.1226 -0.1565  0.0664
    1W        W58357  27.866  21.731   8.316 -0.0233 -0.0592 -0.1652
    1W        W58358  27.549  30.246   1.933  0.0306  0.1357 -0.0158
    1W        W58359   0.087   9.072   0.085 -0.0265 -0.1954  0.1641
    1W        W58360   5.534  27.971   0.102 -0.3297  0.0746  0.2978
    1W        W58361   6.053   2.345   8.728  0.0438 -0.0081  0.2327
    1W        W58362   9.325   7.557   1.009 -0.1545  0.2094  0.2441
    1W        W58363   2.676   6.686   1.812 -0.2231  0.0587  0.1858
    1W        W58364  17.526  29.090   2.361 -0.1000 -0.0169  0.1226
    1W        W58365  11.452   6.294   7.677  0.0305  0.2036 -0.0558
    1W        W58366  28.245  12.673   6.927 -0.1658 -0.2626 -0.0355
    1W        W58367   7.501  22.784   7.695  0.2138  0.2853 -0.1029
    1W        W58368  21.483   3.514   8.784  0.3402  0.0856 -0.3054
    1W        W58369  23.407  28.906   0.610 -0.2181  0.0280  0.0651
    1W        W58370   9.254   1.663   9.228  0.1361 -0.1544  0.0544
    1W        W58371  11.185  27.978   7.821  0.2096  0.0152 -0.0734
    1W        W58372   5.699  19.169   7.986  0.0371 -0.1479  0.1887
    1W        W58373  14.595  15.500   7.765  0.2093 -0.0539  0.0485
    1W        W58374   3.285  19.184   0.663  0.0541  0.2516 -0.0150
    1W        W58375   3.213   9.202   0.840 -0.1102 -0.1008 -0.0141
    1W        W58376  24.675  19.564   1.277  0.1558  0.0907 -0.0426
    1W        W58377   6.845   2.683   9.051 -0.1080 -0.3169  0.0562
    1W        W58378   7.382  25.256   7.317 -0.2182  0.2596  0.2009
    1W        W58379  16.298  20.826   6.717  0.1346 -0.2929  0.0134
    1W        W58380  15.098  25.148   1.878 -0.0681 -0.4550  0.0010
    1W        W58381  26.263  22.300   0.420 -0.0925  0.0293  0.1045
    1W        W58382  26.682  11.752   8.848  0.2408  0.4050  0.2687
    1W        W58383   8.370   8.392   8.784 -0.0517 -0.2745 -0.0265
    1W        W58384  12.261   1.882   8.209  0.1263 -0.0607  0.3812
    1W        W58385   1.342  16.585   1.540  0.3820 -0.2204  0.0455
    1W        W58386  13.494   7.787   7.246  0.1454 -0.2727  0.0017
    1W        W58387  11.443  13.812   0.911  0.0630  0.0540 -0.0869
    1W        W58388  21.021  19.568   6.860  0.3142 -0.0801 -0.3776
    1W        W58389  18.984  17.459   2.672 -0.3490 -0.0824 -0.0411
    1W        W58390  17.555  10.360   7.035 -0.0799 -0.0425  0.3677
    1W        W58391  21.675  25.330   0.041  0.1240  0.4396  0.0895
    1W        W58392  21.947  16.944   6.221 -0.0713  0.4503 -0.1737
    1W        W58393   6.775  28.607   7.668 -0.1886  0.0377 -0.2878
    1W        W58394  11.642  12.962   1.967 -0.2322 -0.2080  0.1337
    1W        W58395   0.975  20.457   9.166  0.1635  0.1347  0.1928
    1W        W58396   7.789  20.153   0.362  0.0065  0.2142 -0.2876
    1W        W58397  10.811   1.006   1.700  0.1609 -0.1601 -0.2864
    1W        W58398  11.478   4.630   0.106  0.0528 -0.1172  0.0574
    1W        W58399  27.675   6.261   0.607  0.2017 -0.1592 -0.0598
    1W        W58400  26.284   9.377   7.069 -0.2024  0.2023 -0.2553
    1W        W58401  17.732  12.418   0.297  0.1509 -0.1876 -0.0878
    1W        W58402  24.414  27.994   0.398  0.1092 -0.0753  0.3388
    1W        W58403   4.461  12.067   6.164  0.0326  0.2012 -0.1700
    1W        W58404  19.906  28.486   8.840 -0.1973 -0.2830 -0.3119
    1W        W58405   3.736  12.878   7.410 -0.0677 -0.0830 -0.1849
    1W        W58406  27.991  16.961   7.672 -0.0202 -0.1065  0.1717
    1W        W58407   7.785  19.624   0.615 -0.1186 -0.1997  0.2631
    1W        W58408  30.129  21.827   1.397 -0.3806  0.0749 -0.1952
    1W        W58409  26.916   7.155   7.992  0.1168 -0.3074 -0.1362
    1W        W58410  23.321  19.367   6.415  0.0625  0.0322 -0.0137
    1W        W58411  20.788  27.210   1.806  0.0809 -0.2642 -0.2011
    1W        W58412  22.410  19.638   0.709  0.0616 -0.0072  0.1135
    1W        W58413  21.574  24.274   7.150 -0.2017 -0.3006 -0.2790
    1W        W58414  13.616  25.151   6.793  0.1371  0.0170 -0.3428
    1W        W58415  12.581  15.241   1.252  0.2165  0.0713 -0.2757
    1W        W58416   6.313  23.519   7.734  0.4102  0.1048  0.2695
    1W        W58417  28.993   8.725   7.058  0.3457  0.0834  0.1294
    1W        W58418  15.346  17.781   8.202 -0.0034 -0.4688 -0.1112
    1W        W58419  26.194   6.600   7.271  0.0040  0.1168  0.4318
    1W        W58420  29.861  25.727   0.241  0.1090  0.1806 -0.1114
    1W        W58421  25.735  14.944   8.939  0.0905 -0.2283 -0.3753
    1W        W58422  13.240  28.376   8.946  0.4003  0.2834  0.4004
    1W        W58423  22.436  11.359   1.142  0.1817 -0.1678 -0.0130
    1W        W58424  16.855  24.414   0.983  0.4707 -0.1199  0.2141
    1W        W58425  23.265  27.996   8.869 -0.1314 -0.1849  0.2809
    1W        W58426  10.268   5.089   2.778 -0.2125  0.2335  0.1468
    1W        W58427  15.729  10.169   0.964  0.1271 -0.0654 -0.2302
    1W        W58428   5.141  11.074   8.765 -0.1260 -0.2787  0.1594
    1W        W58429  25.946  19.340   0.473 -0.3218 -0.0361  0.0620
    1W        W58430  24.418   9.675   0.886  0.1907 -0.0817  0.3678
    1W        W58431  23.061  23.641   8.111  0.1803  0.0005  0.2773
    1W        W58432  24.846  24.675   2.846  0.1689 -0.0006  0.1580
    1W        W58433   8.990  11.035   2.233  0.0794 -0.1047  0.1545
    1W        W58434  11.440  28.166   8.742  0.0985 -0.1982  0.0336
    1W        W58435  22.801  10.349   1.570 -0.2056  0.0370  0.2161
    1W        W58436   9.038   0.498   8.269 -0.1024 -0.1878  0.0123
    1W        W58437  18.207  23.059   8.447 -0.1201 -0.0643 -0.2641
    1W        W58438   7.790  14.249   0.528 -0.0864 -0.0972  0.0142
    1W        W58439  12.467  19.221   0.065  0.0114  0.0411 -0.3281
    1W        W58440  16.322   3.150   7.497  0.0849 -0.0307  0.0791
    1W        W58441  10.096   3.574   2.535 -0.2375  0.2746  0.1257
    1W        W58442   4.237  20.680   8.977 -0.1411 -0.0624  0.1886
    1W        W58443  22.972  13.332   1.304 -0.1144 -0.4474  0.3472
    1W        W58444  12.384   9.038   0.601 -0.5526 -0.1090 -0.2311
    1W        W58445   1.787  13.331   7.951  0.0382  0.0932 -0.2185
    1W        W58446  11.855  11.940   2.716  0.0992 -0.0431  0.0386
    1W        W58447   6.794   7.051   0.089  0.0072 -0.0758 -0.1013
    1W        W58448  26.479  29.030   1.903  0.0507  0.0005 -0.2983
    1W        W58449  24.031  29.400   0.328 -0.0877 -0.2574 -0.0225
    1W        W58450  21.526  12.738   7.307  0.0295 -0.1035 -0.0462
    1W        W58451   3.792   7.769   8.800 -0.1033  0.1242 -0.1616
    1W        W58452  13.798  21.654   6.715 -0.0992  0.1850 -0.2088
    1W        W58453  12.652  20.113   8.927 -0.1617 -0.0413  0.0243
    1W        W58454   1.979  25.732   7.425 -0.0062 -0.1341  0.0942
    1W        W58455  10.021   1.307   9.269 -0.1410 -0.2296 -0.1088
    1W        W58456  29.785  28.150   7.444 -0.0006  0.2399 -0.3158
    1W        W58457  16.809  18.343   7.586  0.2824 -0.0362 -0.0071
    1W        W58458  10.994  29.079   7.371  0.1953 -0.0557  0.0644
    1W        W58459  16.853  17.321   0.490  0.0978  0.2791 -0.0189
    1W        W58460  29.922  23.026   7.044 -0.0353 -0.0577  0.1655
    1W        W58461  18.006  28.332   2.401  0.0832  0.1107  0.0417
    1W        W58462  10.347   7.611   7.278 -0.1709  0.1458 -0.1011
    1W        W58463  18.631   0.658   2.206  0.3595 -0.0864  0.2217
    1W        W58464  24.798   6.855   2.945 -0.2848 -0.2654 -0.1126
    1W        W58465  11.893  16.177   7.976  0.0560 -0.2476  0.2311
    1W        W58466  23.272  13.860   0.969 -0.0660 -0.2859  0.0322
    1W        W58467  18.607  17.632   1.317 -0.1169 -0.1473  0.1093
    1W        W58468  25.920  16.555   7.434  0.2483 -0.1069 -0.1365
    1W        W58469  20.047   6.978   0.315 -0.2834 -0.0259  0.0589
    1W        W58470  16.841   9.227   0.317 -0.1048  0.0027 -0.0002
    1W        W58471   0.425   8.564   7.838 -0.1254 -0.2467 -0.0958
    1W        W58472  16.639   0.612   2.002 -0.0608  0.1793 -0.1399
    1W        W58473  15.975  21.773   1.477 -0.0407  0.1936 -0.2146
    1W        W58474  21.376  20.366   7.903 -0.1698 -0.2388  0.0498
    1W        W58475   4.496   6.780   0.880  0.0564  0.0538 -0.1087
    1W        W58476  28.510  28.261   0.034 -0.0986  0.0791 -0.1932
    1W        W58477   4.989  23.537   8.465  0.1176 -0.2044  0.1024
    1W        W58478  27.778  28.655   7.561  0.3319 -0.0614 -0.2391
    1W        W58479  10.332   9.978   3.040  0.0265  0.0769 -0.0791
    1W        W58480   2.707  28.620   7.593  0.1849  0.0775  0.2325
    1W        W58481   9.161   3.933   1.488  0.0099  0.0814  0.0319
    1W        W58482  18.340  15.260   3.034  0.1846 -0.0686 -0.0090
    1W        W58483   8.555   1.322   1.367 -0.0527  0.0688 -0.2106
    1W        W58484   9.613   3.609   6.368 -0.4180  0.0079  0.2767
    1W        W58485  23.089  27.449   3.480  0.1508 -0.0351  0.1075
    1W        W58486  27.793   1.744   1.287  0.2690  0.0563  0.0652
    1W        W58487   4.773   5.846   0.657 -0.0602 -0.0812  0.1210
    1W        W58488  22.876  17.915   9.242  0.0073 -0.1148 -0.1382
    1W        W58489  12.816  10.393   1.281 -0.0796 -0.1126  0.4549
    1W        W58490  28.765  12.284   6.481  0.2417 -0.0126 -0.1037
    1W        W58491  26.493   7.475   9.084 -0.1661  0.1290  0.1470
    1W        W58492  18.736  17.848   8.323  0.2912  0.1270  0.1162
    1W        W58493   6.054  10.657   1.763  0.0049 -0.1253  0.0075
    1W        W58494  29.042  23.950   9.101 -0.2213 -0.1481 -0.0261
    1W        W58495  17.403  17.392   7.583  0.1677  0.1176 -0.1620
    1W        W58496   3.578  19.470   6.456  0.3988 -0.1613  0.2173
    1W        W58497  22.390  18.245   7.456 -0.0503 -0.0099 -0.2235
    1W        W58498  25.608  25.822   3.573  0.4113  0.1902  0.0079
    1W        W58499  20.408   3.688   2.444  0.2988 -0.1262 -0.1622
    1W        W58500  27.015   2.772   3.743 -0.0600 -0.1402  0.1407
    1W        W58501  22.258  22.719   6.395 -0.0561  0.0067  0.0808
    1W        W58502  25.168   0.778   8.810 -0.1816 -0.1468  0.4300
    1W        W58503  28.410  24.901   2.441  0.0923 -0.0466  0.0457
    1W        W58504  17.894  25.813   1.962 -0.2407  0.1629 -0.3852
    1W        W58505   9.791   0.517   1.152 -0.1529  0.0498  0.0175
    1W        W58506   2.776   5.459   0.192 -0.1275  0.1750  0.1510
    1W        W58507  28.455   2.791   8.210 -0.0415 -0.0242 -0.2016
    1W        W58508  27.475  23.990   8.398 -0.3070 -0.2456  0.1058
    1W        W58509  15.571  26.653   0.056  0.0239 -0.0219 -0.0819
    1W        W58510  22.189   2.900   2.367 -0.0380  0.0436  0.0375
    1W        W58511  24.979   2.867   6.982  0.0345  0.0885  0.1019
    1W        W58512  18.231  13.828   0.476  0.1639 -0.0591  0.1062
    1W        W58513  12.055   5.408   9.002 -0.1139  0.0987  0.0043
    1W        W58514   5.333   8.644   0.224 -0.1614 -0.2044 -0.2534
    1W        W58515  10.883  22.869   1.459 -0.5875 -0.2917  0.2918
    1W        W58516  12.920   4.924   9.063 -0.0293 -0.1648 -0.1321
    1W        W58517  17.659  24.821   6.979 -0.0735  0.0606 -0.1395
    1W        W58518  13.611   4.290   2.515  0.0516 -0.1234  0.0451
    1W        W58519   8.220  15.568   8.697 -0.0108  0.2989  0.2174
    1W        W58520   1.914   1.154   0.098 -0.1163  0.1042 -0.0772
    1W        W58521  13.406  21.941   1.732  0.1759  0.3793  0.1718
    1W        W58522  21.972  20.089   9.062 -0.0105  0.1013  0.0969
    1W        W58523   4.823   2.178   1.149 -0.1038  0.2578 -0.1056
    1W        W58524  26.138  15.243   0.450 -0.1879 -0.1654  0.0729
    1W        W58525  27.873  18.860   8.821 -0.0125 -0.2968 -0.1020
    1W        W58526  20.462  27.078   5.944  0.0173 -0.3424  0.0598
    1W        W58527  14.343   1.688   2.051 -0.1278 -0.3148 -0.0383
    1W        W58528  29.489  12.433   0.662 -0.0782 -0.0171 -0.4858
    1W        W58529  12.750   7.490   7.096 -0.1826  0.0006  0.0985
    1W        W58530  24.627  10.710   6.171 -0.0837  0.0889  0.1943
    1W        W58531  15.290  13.376   2.343 -0.1096  0.0557  0.0065
    1W        W58532  23.156  26.678   8.618  0.0173  0.2482  0.0936
    1W        W58533  12.059   9.548   0.465 -0.1239  0.0183 -0.0410
    1W        W58534  16.972  14.707   1.551  0.0707  0.0972  0.0501
    1W        W58535   1.584  10.828   1.495  0.0824 -0.1527 -0.1391
    1W        W58536  10.449   5.600   8.401  0.1082  0.0937 -0.1203
    1W        W58537  29.448  10.262   2.136  0.3201 -0.2956 -0.2918
    1W        W58538  20.084  28.081   2.837 -0.3258 -0.1348  0.0740
    1W        W58539  15.123  23.437   1.684 -0.3713  0.2743  0.0397
    1W        W58540   0.857  15.360   6.131  0.0126 -0.0880 -0.0666
    1W        W58541  10.263  22.606   8.202  0.2540 -0.0474  0.2112
    1W        W58542   3.101  12.521   8.193  0.1771 -0.0380  0.1396
    1W        W58543  16.280  26.031   6.810 -0.0300  0.0087 -0.0862
    1W        W58544   7.889  24.498   9.269 -0.0148  0.2488  0.2334
    1W        W58545   7.699   1.870   8.200 -0.2537 -0.4048 -0.1162
    1W        W58546  15.971  20.995   1.337  0.2404  0.1117 -0.0877
    1W        W58547   5.752   3.934   8.615 -0.0655  0.3601 -0.2334
    1W        W58548  26.569  15.245   8.495  0.0405  0.2412 -0.1484
    1W        W58549   8.356  15.562   6.973 -0.0614  0.0681  0.0451
    1W        W58550  10.126  29.435   7.259 -0.1819 -0.0592 -0.1409
    1W        W58551  22.331  12.454   9.167 -0.1717 -0.0759  0.2821
    1W        W58552  16.005   3.702   1.748  0.1254  0.0688  0.2984
    1W        W58553  27.683  14.906   8.152  0.3362 -0.1243 -0.1240
    1W        W58554   4.832   3.646   2.816 -0.3621 -0.2111  0.0201
    1W        W58555   6.357  20.943   0.595  0.1453  0.1939 -0.0296
    1W        W58556   9.032  17.735   6.761  0.1822 -0.3080  0.1738
    1W        W58557   6.267  27.743   7.176  0.0748  0.1960 -0.0422
    1W        W58558   1.547  27.029   7.815  0.0655 -0.1575 -0.0157
    1W        W58559  16.368   3.624   7.804 -0.2902 -0.0675  0.0723
    1W        W58560   7.493  20.872   1.435 -0.1572 -0.2319  0.2898
    1W        W58561  25.497  18.333   0.181  0.0280  0.2838 -0.0312
    1W        W58562  10.524  21.619   1.635  0.1165  0.2541 -0.2532
    1W        W58563   1.625  12.882   7.727 -0.0804  0.0004 -0.0508
    1W        W58564  18.222  29.303   8.362  0.2796  0.0840 -0.1891
    1W        W58565  20.010   5.963   7.437 -0.2478  0.0929  0.0730
    1W        W58566  28.313  25.277   2.149  0.1375 -0.1060 -0.1595
    1W        W58567  13.165   4.532   2.824  0.0502 -0.1040 -0.0098
    1W        W58568  28.118   6.486   8.242  0.2422  0.3080 -0.0009
    1W        W58569  29.786  14.894   8.017  0.1657  0.0262  0.0525
    1W        W58570  24.801  15.024   1.162  0.1421  0.1148 -0.0455
    1W        W58571  14.305   1.208   7.754  0.0662  0.1372 -0.2445
    1W        W58572  11.674  26.256   0.906  0.1746 -0.0259  0.0263
    1W        W58573  11.457  25.220   0.753  0.3233  0.0294  0.3190
    1W        W58574   8.352  24.691   6.621 -0.0469 -0.3023 -0.1273
    1W        W58575  23.955  21.950   6.475 -0.2354  0.0069  0.0151
    1W        W58576  29.036   9.491   0.752 -0.2697 -0.2316  0.0503
    1W        W58577  13.504  18.329   1.105  0.1841  0.0315  0.3141
    1W        W58578   5.261  10.995   8.327 -0.1165  0.0595  0.3723
    1W        W58579  17.338  18.630   0.440  0.3627  0.1191 -0.1334
    1W        W58580  24.655  13.710   5.650 -0.2284  0.2881 -0.3413
    1W        W58581  12.451  12.751   0.820  0.2137 -0.1587  0.1143
    1W        W58582   7.632   9.990   8.589  0.1440  0.1552  0.2110
    1W        W58583  28.738  24.704   8.415 -0.1633 -0.4254  0.0029
    1W        W58584  30.291  26.816   0.131  0.2067  0.0618  0.2515
    1W        W58585  25.332  19.400   8.936 -0.2382  0.3065 -0.0174
    1W        W58586  14.793  17.728   1.458 -0.1368 -0.0251  0.0373
    1W        W58587  23.857  24.233   7.296  0.0040  0.0651 -0.0935
    1W        W58588  28.372   5.154   7.942  0.0644 -0.2938  0.3085
    1W        W58589  15.995  24.175   8.174 -0.0436 -0.2542  0.1873
    1W        W58590  19.191  16.370   7.362  0.1879 -0.0130 -0.2240
    1W        W58591   9.723  20.743   1.139  0.0642  0.0309  0.1439
    1W        W58592  24.356   2.795   1.965  0.0948 -0.0181  0.1516
    1W        W58593   5.582   7.396   1.373  0.0671 -0.0396  0.0200
    1W        W58594  17.875  29.515   1.840 -0.1133 -0.1403 -0.0335
    1W        W58595  16.332   1.386   8.642 -0.2741 -0.0204 -0.0776
    1W        W58596   9.483  26.271   1.706  0.1905  0.1086  0.4391
    1W        W58597   4.615  18.248   1.480  0.1592 -0.0042  0.1987
    1W        W58598  22.507  24.170   9.220 -0.1242  0.4208 -0.2369
    1W        W58599  27.600  12.389   7.424 -0.0798  0.0798  0.2859
    1W        W58600  14.193  21.312   1.320 -0.0842 -0.2198  0.0043
    1W        W58601  24.818   4.505   0.528 -0.1609  0.3625 -0.2789
    1W        W58602  17.920  27.772   6.747  0.0021 -0.1006 -0.0205
    1W        W58603  14.538   2.573   7.960  0.0052  0.0123 -0.0912
    1W        W58604  18.839   9.322   8.748  0.2035 -0.0340 -0.0985
    1W        W58605   5.097   4.318   1.154 -0.0269  0.0398  0.0125
    1W        W58606  29.477  20.235   0.158  0.1110  0.1568 -0.1390
    1W        W58607  21.933  13.081   6.471 -0.0531  0.0706  0.0897
    1W        W58608   3.585  16.352   7.347  0.0970 -0.2626 -0.1020
    1W        W58609  18.506  29.601   8.076  0.3119 -0.0426 -0.1006
    1W        W58610   1.981  17.006   2.131 -0.1753 -0.1578  0.1743
    1W        W58611   7.139   9.782   2.830  0.3299  0.3105 -0.1160
    1W        W58612   5.971   3.540   2.654 -0.1942 -0.0753 -0.1237
    1W        W58613   3.097  13.615   1.621  0.0215 -0.0569  0.0331
    1W        W58614  29.893  28.749   0.710  0.0612 -0.1749  0.0474
    1W        W58615  23.341  19.816   6.715  0.1083 -0.0491  0.2118
    1W        W58616   1.943   7.307   7.156  0.0323  0.2792  0.0195
    1W        W58617  19.290  20.669   8.093  0.4356 -0.0749  0.1227
    1W        W58618   8.030  16.604   8.959  0.2019 -0.1955  0.3324
    1W        W58619  14.967  22.413   7.736  0.2921 -0.3149  0.2196
    1W        W58620  26.972   4.154   3.641  0.0577 -0.2245  0.0783
    1W        W58621   4.642   1.852   7.229  0.1094  0.1665  0.1165
    1W        W58622  21.859  20.866   1.047 -0.0197 -0.0165 -0.0504
    1W        W58623  27.776   7.823   1.626 -0.1171 -0.0254 -0.2249
    1W        W58624   4.473  30.324   0.965  0.2554  0.2979 -0.0170
    1W        W58625   2.591  25.317   0.561 -0.0372  0.1117 -0.3092
    1W        W58626  17.129  28.644   0.099 -0.4567  0.1339  0.0002
    1W        W58627  10.059  23.213   0.642  0.4278 -0.0630  0.3245
    1W        W58628   4.298  27.962   0.244 -0.0806  0.1524 -0.0230
    1W        W58629  25.268   7.326   7.132  0.2302 -0.2111 -0.0275
    1W        W58630  11.699  27.680   7.558  0.2586 -0.2601  0.0226
    1W        W58631   4.686  27.653   7.660 -0.0929 -0.0461  0.1848
    1W        W58632  11.934   1.639   1.627 -0.0816 -0.1489 -0.1132
    1W        W58633   3.603  30.123   3.252  0.0385 -0.0709  0.4080
    1W        W58634  20.871  12.869   0.069 -0.1836  0.0528  0.1598
    1W        W58635   6.031  14.612   6.821  0.2956 -0.3935  0.0574
    1W        W58636  21.453  27.987   2.770 -0.1017 -0.0684  0.1253
    1W        W58637  14.176   1.696   7.965  0.0078 -0.0398 -0.1049
    1W        W58638  22.517  26.793   7.249 -0.0208 -0.3710 -0.1638
    1W        W58639  10.267  18.057   1.571 -0.0687  0.0732  0.2572
    1W        W58640   2.314  17.319   7.830  0.0666 -0.0721 -0.1413
    1W        W58641  28.601  29.742   7.915 -0.2777 -0.2874 -0.2029
    1W        W58642  15.279  25.403   2.285  0.1764 -0.0627 -0.0940
    1W        W58643  14.772   2.625   1.859  0.1587  0.3094  0.1849
    1W        W58644   3.879  28.755   1.675  0.0466  0.0087  0.1050
    1W        W58645  22.875  20.029   6.807 -0.3332  0.1539  0.2511
    1W        W58646  27.022   9.165   8.849 -0.1711 -0.1954  0.1496
    1W        W58647  15.770   0.527   2.122 -0.1697 -0.2043 -0.0362
    1W        W58648  28.225  19.011   1.193  0.0020  0.1450  0.2461
    1W        W58649   0.564   3.007   1.067  0.0057 -0.2943 -0.0324
    1W        W58650  13.806   0.026   2.624  0.4554 -0.2890  0.0709
    1W        W58651  23.941  23.648   0.675 -0.0378  0.2018  0.2021
    1W        W58652  26.371   2.234   9.221  0.0041  0.0468  0.0370
    1W        W58653   3.830  22.445   1.277  0.0715  0.0099  0.1255
    1W        W58654  25.491  24.801   2.121  0.2837  0.1446  0.0876
    1W        W58655  25.533  23.577   0.389 -0.1424 -0.1421  0.1452
    1W        W58656   9.463   8.150   6.406 -0.2935  0.2326 -0.1012
    1W        W58657  28.958   6.905   6.352  0.0041  0.1273 -0.1946
    1W        W58658  20.727   3.557   1.981 -0.0408  0.1944 -0.1139
    1W        W58659   2.886   1.389   9.269 -0.2479  0.1607  0.0911
    1W        W58660  19.879  22.067   8.314  0.2284 -0.4454  0.1596
    1W        W58661  26.130   5.766   1.466 -0.4138 -0.1273 -0.2027
    1W        W58662   0.298  29.765   7.082  0.1808  0.0254  0.0900
    1W        W58663  28.109  13.671   9.210  0.1578  0.1694 -0.0980
    1W        W58664   9.309  20.912   9.028 -0.1687 -0.1771  0.0975
    1W        W58665   7.015  17.452   0.079  0.0848 -0.1362  0.1865
    1W        W58666   2.793  12.689   1.155  0.1712 -0.4480  0.0509
    1W        W58667  11.717  15.824   0.758 -0.1513 -0.2443 -0.0274
    1W        W58668  20.061  18.066   0.279 -0.0763 -0.2658 -0.1213
    1W        W58669   8.879  27.460   2.210 -0.0273  0.2719 -0.1703
    1W        W58670  24.629  22.959   0.515  0.0025 -0.1331  0.2997
    1W        W58671  25.745  27.931   7.460 -0.0035 -0.4651  0.2861
    1W        W58672  28.624  14.773   0.827 -0.4198  0.2228 -0.1119
    1W        W58673  27.762   6.616   2.854 -0.0684 -0.0439 -0.2531
    1W        W58674  29.664  15.466   1.035  0.1038  0.1266 -0.1471
    1W        W58675  22.362  12.990   8.473  0.0420 -0.3831 -0.0792
    1W        W58676   3.427  12.438   7.666 -0.2846  0.2004 -0.1961
    1W        W58677  27.992  20.643   6.848  0.1861 -0.1486 -0.0992
    1W        W58678  15.488  11.269   7.481  0.2814  0.0092 -0.2095
    1W        W58679   2.858  23.420   7.378  0.0420  0.1602 -0.1024
    1W        W58680  17.359  30.246   0.126 -0.1247  0.0477 -0.0337
    1W        W58681  18.188  15.971   0.740  0.1150  0.0812 -0.1945
    1W        W58682  19.112   1.442   2.237  0.0473  0.1643 -0.0450
    1W        W58683   2.194  13.149   1.665 -0.4314  0.0012 -0.2240
    1W        W58684  12.883   5.707   0.879  0.1865 -0.0126  0.0059
    1W        W58685  18.992   3.509   0.416 -0.0747  0.2262  0.0042
    1W        W58686   5.966  24.967   8.299 -0.1657 -0.1781 -0.0249
    1W        W58687  22.042  27.276   2.645 -0.1193  0.2230 -0.1752
    1W        W58688  12.069   4.173   8.037  0.2158 -0.2973  0.2122
    1W        W58689  19.132   6.093   7.191  0.4670  0.1109  0.3927
    1W        W58690  16.183  13.082   2.788 -0.2302 -0.0677  0.1722
    1W        W58691  18.995   1.186   7.898 -0.0408 -0.1536  0.3284
    1W        W58692   8.199  13.811   1.992  0.0097  0.0151  0.1612
    1W        W58693  28.722   9.654   6.665 -0.2521  0.1595  0.0465
    1W        W58694  16.540   8.835   1.588 -0.2298 -0.2986 -0.0645
    1W        W58695  18.415   0.215   7.787 -0.0063 -0.2096 -0.4674
    1W        W58696  20.966   1.245   0.151 -0.3311 -0.2338  0.2556
    1W        W58697  12.276  27.776   7.325  0.0286 -0.0432 -0.1356
    1W        W58698  10.859  27.664   8.170  0.2279  0.0000 -0.0378
    1W        W58699  21.746  20.675   7.406  0.1252  0.0937  0.2287
    1W        W58700  26.090  16.004   1.685 -0.1511  0.0801 -0.1418
    1W        W58701  15.698   6.635   1.613 -0.2773 -0.0684 -0.0383
    1W        W58702  24.374  12.844   8.416 -0.3228 -0.3020 -0.0875
    1W        W58703  19.830  27.690   2.766  0.1635  0.3567 -0.1734
    1W        W58704  21.794  17.665   8.452  0.1250  0.3371  0.0521
    1W        W58705   9.894   1.037   7.069 -0.0505 -0.2428  0.0220
    1W        W58706  23.866  28.851   1.835  0.2653 -0.0317 -0.1201
    1W        W58707  11.675  26.237   2.761  0.1808  0.2412  0.0484
    1W        W58708  25.399  19.460   6.992 -0.0288  0.1664  0.2999
    1W        W58709  12.525  11.681   7.354  0.1862 -0.0359 -0.0104
    1W        W58710  14.128  25.044   1.244 -0.0828 -0.1673 -0.4365
    1W        W58711  27.207   5.378   3.374  0.0924  0.1189  0.0480
    1W        W58712  20.651  14.813   7.658 -0.2600 -0.0598 -0.0639
    1W        W58713   0.824  23.001   8.115  0.0669  0.0545  0.0471
    1W        W58714   0.433  28.800   1.842 -0.2159  0.1264  0.3672
    1W        W58715   1.090  21.729   7.501 -0.1321  0.1288 -0.2299
    1W        W58716  23.043   5.113   9.124  0.1307  0.4261  0.0066
    1W        W58717  20.930   1.122   6.290 -0.3903  0.0909 -0.1682
    1W        W58718  18.482   8.690   5.870  0.0158  0.0001 -0.3780
    1W        W58719   6.949  14.374   9.185 -0.1734 -0.1258 -0.1079
    1W        W58720  27.481   0.252   8.673  0.0505 -0.0286  0.4012
    1W        W58721  25.692   9.740   1.829 -0.2971  0.3174 -0.0681
    1W        W58722  11.767  22.907   6.348  0.0839 -0.0251  0.0822
    1W        W58723   5.285  14.163   8.701 -0.0115  0.1964 -0.1777
    1W        W58724  13.733  28.092   7.379 -0.3164  0.0782 -0.1721
    1W        W58725   1.702  27.451   0.032  0.1742 -0.0889 -0.1125
    1W        W58726  29.030  27.314   0.074  0.1169 -0.0206  0.0565
    1W        W58727   6.247  29.045   0.143  0.0230 -0.0251 -0.1596
    1W        W58728   6.139  27.049   8.708 -0.3079  0.1247  0.1443
    1W        W58729   9.262   9.807   2.415  0.3793  0.0556  0.0099
    1W        W58730  13.745  11.639   1.971 -0.2212  0.0689  0.3821
    1W        W58731   2.895  16.296   0.550  0.1328  0.1702  0.1754
    1W        W58732  28.099   5.942   0.463 -0.1311  0.2954  0.0119
    1W        W58733  21.975  25.847   1.923  0.0118  0.0215 -0.0991
    1W        W58734  16.253   4.465   0.940  0.1783 -0.0114  0.2496
    1W        W58735  21.481  27.648   6.342 -0.0178 -0.0400 -0.4150
    1W        W58736   1.319   4.317   3.490 -0.1448  0.1010 -0.1714
    1W        W58737  23.904  16.340   5.659  0.0114  0.1470  0.2187
    1W        W58738  19.541  29.278   2.166  0.1259 -0.0701 -0.3316
    1W        W58739  20.421  17.875   7.247 -0.0051  0.2214  0.3145
    1W        W58740  18.213   0.448   2.432 -0.2018 -0.1029  0.1002
    1W        W58741  14.601  13.205   2.883  0.1199  0.2164 -0.1148
    1W        W58742  19.392   9.673   7.724 -0.0837  0.2976 -0.0782
    1W        W58743  13.977  26.608   0.724  0.1384  0.0601 -0.0817
    1W        W58744  28.473  23.871   2.069  0.0032 -0.0115 -0.1059
    1W        W58745  15.818  12.198   2.727  0.2305 -0.2410  0.0704
    1W        W58746  28.970  22.504   2.080  0.2333  0.1723  0.4197
    1W        W58747   8.432   6.300   0.495  0.0212 -0.0023  0.1032
    1W        W58748  20.088  26.393   7.917  0.0691 -0.0826 -0.0027
    1W        W58749  16.054  20.832   6.244 -0.1415 -0.0898 -0.3370
    1W        W58750  13.770  25.400   7.229  0.0011 -0.2537  0.0703
    1W        W58751  12.421  14.317   1.187  0.0122 -0.0143 -0.0972
    1W        W58752   4.857  27.675   6.659  0.0312  0.1261  0.0197
    1W        W58753   7.341  14.060   6.865  0.0615 -0.0318  0.2288
    1W        W58754   6.872   1.550   0.853 -0.3825 -0.3567  0.0182
    1W        W58755  23.055  28.608   9.226  0.0450 -0.2106 -0.0320
    1W        W58756   5.848  27.555   1.689 -0.2502 -0.1953 -0.2375
    1W        W58757  26.595   5.830   1.609 -0.0215 -0.1712  0.2962
    1W        W58758  18.362  11.638   6.650  0.1779 -0.1197  0.1396
    1W        W58759   6.586  29.442   0.435  0.1238  0.0671  0.2612
    1W        W58760  25.450  18.734   0.419 -0.2655  0.0838 -0.0002
    1W        W58761  23.048   6.005   8.712 -0.1036  0.0202 -0.0391
    1W        W58762  26.789  11.029   2.456  0.3371 -0.2253  0.1982
    1W        W58763  22.059  28.214   0.993 -0.0708 -0.0159 -0.2690
    1W        W58764   6.264  28.286   1.889  0.2487 -0.3426 -0.2373
    1W        W58765   2.790   3.387   8.331 -0.2728  0.2080 -0.0503
    1W        W58766  24.898   6.680   8.908 -0.0387  0.1983 -0.1764
    1W        W58767  13.579  21.822   7.957 -0.1784  0.0848 -0.1371
    1W        W58768   7.448  24.550   1.867 -0.1858  0.0481  0.3459
    1W        W58769  18.671  16.047   7.078 -0.0785 -0.0776  0.0383
    1W        W58770   0.978   4.728   8.407 -0.1377 -0.0442 -0.0035
    1W        W58771  25.101  17.945   0.839  0.2839 -0.0407  0.0101
    1W        W58772  12.746  13.568   2.808  0.1468 -0.0506  0.1111
    1W        W58773  23.428   1.535   8.953 -0.0431  0.0620  0.2657
    1W        W58774   7.344  13.481   1.987 -0.4003  0.0135 -0.0510
    1W        W58775  10.540  29.867   6.248 -0.0069  0.0285 -0.2467
    1W        W58776  30.213  27.325   1.156  0.1099 -0.0267  0.1711
    1W        W58777  30.349   7.644   9.236  0.0337 -0.0246 -0.2042
    1W        W58778  27.597   3.472   3.166  0.0252  0.0523 -0.1303
    1W        W58779  17.908  15.635   9.158 -0.0563 -0.0491 -0.0709
    1W        W58780  23.924  19.802   0.018 -0.1098 -0.1063  0.2064
    1W        W58781  16.085   2.337   7.275  0.1059  0.4642  0.1533
    1W        W58782  17.701  24.753   5.949  0.0659  0.2285  0.0244
    1W        W58783   3.320  11.653   9.174  0.0276 -0.2089  0.1045
    1W        W58784  21.455   1.027   0.142  0.1458  0.0419 -0.1102
    1W        W58785  20.418  29.770   0.339 -0.3375  0.0574 -0.1839
    1W        W58786   5.877   9.731   7.124  0.1398  0.2128 -0.2443
    1W        W58787  14.187   6.268   7.792  0.1033  0.0444 -0.1463
    1W        W58788  24.171  12.825   0.089  0.2409 -0.0024 -0.0363
    1W        W58789  27.586   0.242   3.247  0.2708  0.1417  0.2262
    1W        W58790  27.039  25.113   1.199  0.2216  0.0658  0.1385
    1W        W58791  26.603  24.799   1.289  0.3592 -0.2271  0.1096
    1W        W58792   0.648  28.704   2.391 -0.3265  0.3102  0.1336
    1W        W58793  28.526  23.989   9.053  0.0563 -0.0569  0.0651
    1W        W58794   8.003   8.414   7.715 -0.1657 -0.2264  0.2590
    1W        W58795  19.498  10.166   8.377  0.2919  0.2824 -0.4080
    1W        W58796  11.982   2.527   8.165  0.3002 -0.1837 -0.0376
    1W        W58797  17.348  16.543   9.081  0.0930  0.1993  0.0420
    1W        W58798   9.101  15.997   2.686 -0.0195 -0.1143 -0.2824
    1W        W58799   2.693  14.071   8.662 -0.2150  0.1279  0.1653
    1W        W58800  23.972  26.344   8.030  0.1772  0.3025 -0.0443
    1W        W58801  24.821  17.565   7.294 -0.1170 -0.1870  0.1722
    1W        W58802  21.279  19.867   1.061  0.2765 -0.2103  0.0804
    1W        W58803   2.385  16.067   7.996 -0.3478 -0.4084 -0.2107
    1W        W58804   7.137  13.111   8.647 -0.0329 -0.1673  0.0071
    1W        W58805  27.863  23.737   1.382  0.0029  0.3336 -0.2484
    1W        W58806  21.959  18.526   1.285  0.1367  0.0008  0.4271
    1W        W58807   5.334   0.076   7.673 -0.1619 -0.4082 -0.1591
    1W        W58808   4.384  27.385   7.279 -0.2281 -0.0525 -0.0574
    1W        W58809   1.156  14.913   8.111 -0.1975 -0.2100  0.1838
    1W        W58810   1.911  28.100   8.712  0.3011 -0.1992 -0.0032
    1W        W58811   5.144  13.524   7.512  0.4325  0.1298  0.1962
    1W        W58812  20.604  16.889   1.235  0.0231  0.0139 -0.3805
    1W        W58813  21.532  16.038   1.628  0.0402  0.2608  0.1333
    1W        W58814   3.937   3.110   7.733  0.3321 -0.2763 -0.1178
    1W        W58815  17.825  23.338   8.555  0.3957  0.1629 -0.0911
    1W        W58816  21.441  25.170   0.522 -0.1410  0.0407 -0.3301
    1W        W58817  17.896   6.295   8.170 -0.0567  0.0679  0.3384
    1W        W58818  22.630   6.219   8.718  0.1235 -0.2851 -0.2244
    1W        W58819   9.183  28.404   7.542  0.1195  0.1797  0.1009
    1W        W58820  26.652   4.160   0.688  0.2107 -0.3041  0.0824
    1W        W58821   8.030  13.365   9.259 -0.2314  0.2301  0.1040
    1W        W58822  14.443  18.576   1.726  0.0105 -0.0816  0.0154
    1W        W58823  29.832   0.605   3.223 -0.1228 -0.3655  0.0092
    1W        W58824  18.711   4.268   1.422  0.3488 -0.1600 -0.2781
    1W        W58825  23.391   5.087   3.518 -0.2929 -0.2998  0.2427
    1W        W58826  23.001  16.665   6.209 -0.5940  0.2538 -0.2541
    1W        W58827  29.546   8.467   7.823 -0.1976 -0.0555  0.0838
    1W        W58828   2.459  24.045   8.088 -0.0461  0.2320  0.1309
    1W        W58829  23.268  22.710   0.148  0.0534 -0.0639 -0.0539
    1W        W58830  11.083  20.609   5.989  0.0621  0.0399  0.1427
    1W        W58831   4.614  15.775   7.319  0.1840 -0.0756  0.0116
    1W        W58832   9.396   1.633   1.277 -0.1122  0.1615  0.1964
    1W        W58833  26.795  17.884   6.929  0.3129 -0.0569  0.1826
    1W        W58834   2.807  24.381   6.879 -0.0175  0.1241 -0.0300
    1W        W58835  13.831   4.860   8.507 -0.2838 -0.2728  0.2021
    1W        W58836  13.943  18.828   2.184  0.0058  0.1594  0.0315
    1W        W58837   5.821  29.705   1.492  0.2094  0.0965  0.0195
    1W        W58838  17.979  11.206   2.129  0.0728 -0.2252  0.2782
    1W        W58839   6.485  28.565   0.470  0.2739  0.1287 -0.0860
    1W        W58840  17.056   2.367   2.169  0.0737  0.5493 -0.0272
    1W        W58841  12.483   1.965   7.709  0.0739  0.0094 -0.3096
    1W        W58842  23.954  21.853   8.530 -0.1701 -0.0157  0.3880
    1W        W58843  20.321  24.138   7.523  0.1232 -0.1913  0.1107
    1W        W58844   5.544  23.789   2.089  0.1974 -0.0082  0.0184
    1W        W58845  17.465  29.069   7.317 -0.1778  0.1405 -0.3030
    1W        W58846  24.903  11.063   2.144 -0.2107  0.2335  0.0952
    1W        W58847  10.776   1.477   1.047 -0.0705  0.1948  0.1406
    1W        W58848   7.074  19.395   5.722 -0.1838 -0.1080  0.1529
    1W        W58849  27.761  29.026   4.044  0.2293  0.0882 -0.3021
    1W        W58850  15.618   7.039   7.015 -0.0556  0.3197  0.3108
    1W        W58851  27.194  12.054   8.035  0.0371  0.0765  0.1222
    1W        W58852  21.099  27.627   8.788  0.0085  0.0993 -0.2033
    1W        W58853  14.816   8.181   6.432 -0.1939 -0.0291 -0.1136
    1W        W58854  21.722  26.711   1.535 -0.0183  0.1573  0.3650
    1W        W58855  13.163  15.984   0.118  0.0651 -0.2131 -0.0981
    1W        W58856  23.123  14.547   6.472  0.1048  0.1693 -0.0549
    1W        W58857   1.948  23.034   2.775 -0.2676 -0.0875  0.1818
    1W        W58858   3.020  17.973   8.591 -0.4721 -0.1091  0.0065
    1W        W58859   8.683   8.734   9.134 -0.0527  0.0349 -0.0567
    1W        W58860  17.142  15.341   1.721 -0.0609 -0.2961 -0.0143
    1W        W58861  13.072   6.562   6.855  0.0142 -0.1524  0.2049
    1W        W58862   1.477  10.177   7.654  0.0154  0.0763  0.0537
    1W        W58863  18.671  12.020   0.640 -0.1130 -0.2578 -0.1401
    1W        W58864  11.252   3.760   0.065  0.1721  0.2374  0.1920
    1W        W58865  26.818  27.156   0.658 -0.0325  0.1259  0.0929
    1W        W58866  24.460   8.729   7.237 -0.1494  0.0726 -0.0777
    1W        W58867  19.190  14.630   0.976  0.0538  0.0516 -0.1299
    1W        W58868   9.554  28.126   0.276  0.3073  0.0848 -0.0578
    1W        W58869  17.120  28.217   0.787  0.0450 -0.0032  0.0071
    1W        W58870  24.574   9.796   6.591 -0.2417 -0.1319  0.1755
    1W        W58871  15.688  24.105   7.822  0.0614 -0.0375 -0.0438
    1W        W58872   4.737  17.815   0.606 -0.0938 -0.0128 -0.0105
    1W        W58873  21.355  26.587   2.990 -0.1021 -0.1366 -0.1880
    1W        W58874  21.447  23.705   5.497  0.2346  0.2511  0.0349
    1W        W58875   5.240  22.016   6.359 -0.1329  0.1155 -0.1294
    1W        W58876  16.531  18.721   1.972  0.1968 -0.1497 -0.0843
    1W        W58877  14.358  26.553   8.395  0.2228  0.0971 -0.1277
    1W        W58878   7.295  23.184   5.953 -0.2699 -0.3191 -0.4245
    1W        W58879   0.297   3.770   0.257 -0.0342  0.0053 -0.2601
    1W        W58880  27.852  17.053   8.507  0.1207  0.1204  0.4136
    1W        W58881  20.541  13.698   8.292  0.0026 -0.0562  0.0529
    1W        W58882  20.304  28.139   3.318 -0.0662  0.1700  0.1444
    1W        W58883  16.399  19.045   2.810  0.1831  0.1001  0.0135
    1W        W58884   0.520  12.987   1.194 -0.1569  0.2171  0.3822
    1W        W58885  15.587  25.448   1.242  0.0155 -0.0784 -0.1218
    1W        W58886  18.999   0.942   6.997 -0.1543 -0.0661 -0.0380
    1W        W58887   5.506   5.735   7.254  0.1871  0.2865  0.0513
    1W        W58888  18.497   7.408   6.701 -0.0220 -0.1667  0.3175
    1W        W58889  22.353  29.352   3.106 -0.5082  0.2474 -0.0476
    1W        W58890  29.070  27.904   7.696 -0.3553  0.0695 -0.2783
    1W        W58891  12.283   7.988   7.999 -0.2139 -0.1158 -0.0915
    1W        W58892   9.355  13.630   1.132  0.0225 -0.0205  0.1714
    1W        W58893   5.077   1.719   2.022  0.1105  0.1483  0.0231
    1W        W58894  29.478   8.600   8.694  0.1498  0.0229 -0.1696
    1W        W58895  30.202  28.130   2.497  0.1042  0.0308  0.0105
    1W        W58896  23.810  24.490   2.051  0.0070 -0.2559 -0.0549
    1W        W58897   7.066  18.081   6.339 -0.1073  0.2953 -0.1311
    1W        W58898  18.160  18.572   6.753  0.0240  0.1469  0.0621
    1W        W58899   5.916  24.299   1.528 -0.0877  0.0761 -0.0356
    1W        W58900  25.995   8.166   2.812  0.1682  0.1939 -0.1850
    1W        W58901   6.875   9.378   9.208  0.1082  0.1769  0.2979
    1W        W58902  25.071   2.623   7.801  0.3192  0.0731  0.0959
    1W        W58903   7.439   3.701   2.853 -0.0035  0.1706 -0.3131
    1W        W58904  13.197  23.239   6.607  0.6049 -0.3802  0.0011
    1W        W58905   0.286   0.477   2.581 -0.1429 -0.1342 -0.1775
    1W        W58906  13.065  21.663   6.342 -0.0064 -0.2646  0.1373
    1W        W58907  23.129   1.113   7.550 -0.0265  0.0414  0.1452
    1W        W58908   6.608   3.180   3.410 -0.1587  0.0684  0.2250
    1W        W58909   3.416  14.823   6.960  0.0200  0.1889 -0.0513
    1W        W58910  21.356  24.105   1.881  0.0502 -0.0274  0.1789
    1W        W58911  15.269  14.942   0.121 -0.0376 -0.0302  0.3005
    1W        W58912   6.152  23.477   9.011 -0.1440 -0.0203 -0.1139
    1W        W58913  27.960   2.538   9.011 -0.1113 -0.2267  0.1711
    1W        W58914  28.738  21.130   0.145 -0.1672 -0.2385 -0.1199
    1W        W58915  25.304  29.352   7.946 -0.0831 -0.0996 -0.2600
    1W        W58916   2.572   6.723   8.477  0.0028 -0.0730 -0.0054
    1W        W58917  27.838   7.760   9.170 -0.2610  0.2475 -0.3699
    1W        W58918  27.458  27.655   1.913  0.3798  0.1776  0.0769
    1W        W58919  28.806  18.784   1.842 -0.1288 -0.2228  0.0891
    1W        W58920  24.422   4.813   7.671 -0.2717 -0.0387 -0.1362
    1W        W58921  11.725   7.042   6.766  0.1980 -0.2198  0.3304
    1W        W58922  20.994  10.669   0.166 -0.0241 -0.0500 -0.0710
    1W        W58923  11.960  21.831   0.496 -0.4252 -0.3033  0.2293
    1W        W58924   9.633  30.103   0.874  0.3438  0.2817  0.1919
    1W        W58925  29.415   5.192   1.742  0.1494 -0.0591  0.2853
    1W        W58926   5.788  17.815   7.655 -0.1173  0.2040  0.1435
    1W        W58927  28.278   4.217   8.736  0.1482  0.1303 -0.1571
    1W        W58928  28.982   9.385   2.331 -0.5816  0.2287 -0.4379
    1W        W58929   8.976  29.734   2.560 -0.3373  0.1080  0.0496
    1W        W58930   6.395   0.410   0.208  0.0647  0.3188 -0.0140
    1W        W58931  21.198   5.137   1.685  0.1629 -0.1208 -0.1551
    1W        W58932  23.530  12.021   5.832  0.1408 -0.2442 -0.1172
    1W        W58933  19.463   5.078   0.082 -0.0828  0.2822  0.0582
    1W        W58934  11.950  29.202   0.891  0.1363  0.2136  0.3189
    1W        W58935  16.060  17.085   6.603 -0.1132 -0.1027  0.4520
    1W        W58936  22.769   3.175   2.534 -0.1702 -0.1487  0.2412
    1W        W58937  25.507  11.817   6.150 -0.0811 -0.1107  0.1041
    1W        W58938  19.872   6.056   6.971 -0.4141  0.1920  0.0518
    1W        W58939  10.137  15.942   0.100 -0.1066 -0.1512 -0.1269
    1W        W58940  23.055  21.648   7.013  0.0010  0.2141  0.1543
    1W        W58941  26.863  24.852   0.358  0.1190 -0.3534  0.1798
    1W        W58942  14.996  27.963   1.293 -0.2073 -0.1882 -0.0428
    1W        W58943   7.996   1.619   7.779  0.1628 -0.1824 -0.1343
    1W        W58944   6.416  10.385   2.301  0.0911  0.1957  0.2162
    1W        W58945  25.341  13.043   7.152 -0.1245 -0.2661  0.3220
    1W        W58946  29.688   5.659   2.517  0.0222  0.2052 -0.1812
    1W        W58947   6.172  17.045   0.046 -0.0526 -0.1255  0.0887
    1W        W58948  11.229   2.046   8.374  0.0221 -0.3455 -0.1283
    1W        W58949  14.026  21.991   6.971 -0.1681 -0.0502  0.0423
    1W        W58950   1.132  16.357   6.877 -0.0520 -0.1361 -0.1080
    1W        W58951   2.472  23.351   7.708 -0.3741 -0.1541  0.2866
    1W        W58952  19.015  25.075   1.444  0.0733  0.0640  0.0347
    1W        W58953  17.604  29.696   3.431  0.3600  0.1892 -0.3688
    1W        W58954  23.508  21.508   0.247 -0.1701 -0.1581  0.1069
    1W        W58955  17.547   5.025   7.794  0.0954 -0.2371  0.3191
    1W        W58956  19.337  12.522   6.227 -0.0295 -0.1006 -0.0235
    1W        W58957  25.262  21.677   7.565  0.0771  0.1293  0.1771
    1W        W58958  18.176  23.705   8.444 -0.0026 -0.0958 -0.4064
    1W        W58959  25.329  24.779   1.233 -0.0264 -0.1477  0.1636
    1W        W58960  11.863  14.770   8.243  0.1779  0.0573  0.2040
    1W        W58961  28.708  23.981   1.174 -0.0778 -0.0263 -0.0206
    1W        W58962   3.017   2.727   8.555 -0.2281  0.3631  0.1619
    1W        W58963  29.779   3.777   0.623  0.0377 -0.0668  0.4245
    1W        W58964  17.395  23.838   7.482 -0.1620  0.0532 -0.1768
    1W        W58965  24.761  20.682   8.245 -0.0748  0.2516 -0.0275
    1W        W58966  20.899  22.968   6.928  0.1955  0.0888  0.0133
    1W        W58967  24.056   9.588   8.972 -0.1510 -0.1047 -0.3534
    1W        W58968   4.040   6.684   8.378  0.0923 -0.1265 -0.1807
    1W        W58969  14.487   2.947   2.050  0.0259  0.0454  0.0896
    1W        W58970   8.065   9.924   8.927  0.1178  0.0464  0.3107
    1W        W58971  14.280  25.067   6.340  0.2116 -0.3694 -0.0012
    1W        W58972   9.242  24.816   1.321 -0.1908  0.0734  0.1253
    1W        W58973   4.136   3.125   3.323  0.0977  0.1975 -0.1191
    1W        W58974   8.291  27.270   6.895  0.1673  0.5304 -0.0680
    1W        W58975  23.825  18.872   0.936  0.0970  0.0223 -0.1171
    1W        W58976   2.013  26.845   7.582  0.0988  0.1802  0.3415
    1W        W58977   9.953  28.898   0.509  0.2830 -0.0101 -0.0523
    1W        W58978  22.179  16.902   0.022  0.2366 -0.0198 -0.0653
    1W        W58979  22.110  23.332   0.899  0.1420 -0.0425  0.0660
    1W        W58980  11.281   2.796   3.017  0.2507 -0.3213 -0.1685
    1W        W58981  16.696  22.571   2.398 -0.3921  0.1263 -0.0126
    1W        W58982  16.595  25.120   1.884 -0.1652  0.1979  0.3834
    1W        W58983  13.763  27.195   7.120 -0.1210  0.3116  0.0107
    1W        W58984   4.914  29.009   0.680  0.0703  0.1947  0.0296
    1W        W58985  11.472  22.214   8.818  0.4243  0.1080  0.0194
    1W        W58986  25.906  19.147   6.285  0.1513  0.1715 -0.1150
    1W        W58987   6.002  28.203   7.266  0.0116  0.2716 -0.1285
    1W        W58988   5.919   5.330   1.248 -0.1370 -0.0990 -0.1992
    1W        W58989   4.221  23.379   1.176  0.0461 -0.2578  0.0270
    1W        W58990   5.819  27.070   7.905 -0.1883  0.0242 -0.0948
    1W        W58991  17.775  25.941   7.923 -0.1388 -0.1571  0.0546
    1W        W58992  16.252   9.320   6.498  0.0303 -0.2022 -0.2131
    1W        W58993  20.813   1.002   7.286  0.2310 -0.0911 -0.0485
    1W        W58994  24.787   6.315   6.627 -0.2726 -0.1466 -0.2475
    1W        W58995  10.544  10.529   8.470 -0.2263 -0.0675 -0.2325
    1W        W58996  15.079  26.444   7.836 -0.1242 -0.1841 -0.1739
    1W        W58997  12.065   6.378   8.903 -0.0850 -0.1560 -0.1100
    1W        W58998   7.361   9.293   0.666  0.0525 -0.0171 -0.3425
    1W        W58999  19.453  11.607   7.443  0.0007 -0.0351  0.0096
    1W        W59000  23.900  25.634   1.694  0.0363 -0.0480  0.1264
    1W        W59001   4.652   8.150   2.709 -0.1511  0.0740  0.0357
    1W        W59002   1.434   8.291   6.522 -0.2058  0.0636 -0.2379
    1W        W59003  23.610  29.854   8.907  0.1829 -0.1123 -0.0501
    1W        W59004   4.705  30.019   2.549  0.0163  0.1561 -0.0349
    1W        W59005  24.603  17.062   6.502  0.1716 -0.3251 -0.0879
    1W        W59006  17.096  27.295   1.410  0.1383 -0.4242  0.0048
    1W        W59007  26.789  23.091   1.263 -0.0140 -0.3782  0.0746
    1W        W59008   6.705  13.131   8.973 -0.1210  0.0533  0.0000
    1W        W59009  20.272  27.571   6.687  0.3228 -0.1320 -0.2670
    1W        W59010  16.960  16.060   2.161 -0.0961 -0.4238 -0.0451
    1W        W59011   0.074   4.523   2.137  0.0093  0.1023 -0.1297
    1W        W59012  15.385  11.246   1.796  0.1271  0.3504 -0.2384
    1W        W59013  15.284  27.822   0.430 -0.0233  0.0134 -0.3876
    1W        W59014  25.851   6.454   1.159 -0.2554  0.0724  0.1577
    1W        W59015   4.911  17.260   8.811 -0.0434 -0.1524  0.1426
    1W        W59016  14.654   8.804   9.219  0.5072 -0.0492 -0.1697
    1W        W59017  25.058  15.050   5.996  0.1981 -0.1699 -0.1665
    1W        W59018   7.454  22.052   7.450  0.1304 -0.1978 -0.0823
    1W        W59019   7.034   7.703   3.013 -0.1446 -0.3144  0.1707
    1W        W59020  11.929  29.743   2.767 -0.0835  0.0206 -0.0240
    1W        W59021   6.951   5.602   7.172  0.1825 -0.0702 -0.0011
    1W        W59022  25.994   2.185   2.015  0.0987 -0.1751 -0.3784
    1W        W59023  27.964  21.480   6.903  0.2483  0.0201 -0.2841
    1W        W59024  25.454   4.527   0.132  0.0937  0.3501  0.1351
    1W        W59025  11.788  14.257   9.265 -0.0686  0.1617 -0.1250
    1W        W59026  13.897  25.466   2.145  0.0560 -0.0622  0.1088
    1W        W59027   4.122   5.963   7.710 -0.3140 -0.0448 -0.0427
    1W        W59028   6.693   5.347   6.843 -0.0495 -0.1175  0.1598
    1W        W59029  22.747  10.938   8.004  0.1051  0.5133 -0.0795
    1W        W59030  24.668  24.865   7.938  0.0264 -0.1894  0.0862
    1W        W59031  15.732  26.484   0.930  0.1296  0.0209 -0.3703
    1W        W59032  18.570  28.390   1.035 -0.1743  0.0785  0.0875
    1W        W59033  27.417  12.973   7.837 -0.0532  0.0279 -0.1908
    1W        W59034  14.251  29.869   8.889  0.0577 -0.1197 -0.0571
    1W        W59035  13.620  23.104   6.154  0.0013  0.1475 -0.0853
    1W        W59036  26.038  20.919   8.449  0.1902 -0.1621  0.1680
    1W        W59037   1.819   9.585   2.227 -0.0731  0.0629  0.0089
    1W        W59038  15.294   7.373   8.850 -0.0104  0.2391 -0.0488
    1W        W59039   7.299  20.236   0.278  0.1118  0.2625 -0.0413
    1W        W59040  22.535   7.843   0.690 -0.2298  0.3502  0.1534
    1W        W59041  15.571   2.895   2.470 -0.3009 -0.0288  0.0051
    1W        W59042  13.218   3.224   8.800  0.1089 -0.1043  0.0710
    1W        W59043   4.792  12.458   1.251 -0.1493 -0.0298  0.0514
    1W        W59044  19.599   6.922   2.843 -0.2738 -0.1696  0.0282
    1W        W59045   5.727  25.438   8.041  0.0949  0.0869 -0.1041
    1W        W59046   2.124   2.506   2.292  0.1412 -0.0712  0.0576
    1W        W59047  11.026  29.434   9.014 -0.0958 -0.2261  0.0453
    1W        W59048  25.744  25.008   7.762 -0.1185 -0.1261 -0.0917
    1W        W59049  10.065   5.525   8.790  0.1262 -0.0403 -0.0210
    1W        W59050  21.683   5.648   6.985 -0.0963 -0.2468  0.4699
    1W        W59051  28.563   1.746   0.399  0.2387  0.0247 -0.3556
    1W        W59052  18.583  11.623   2.845  0.2310  0.0797 -0.0081
    1W        W59053  23.562  28.627   3.557  0.1100 -0.2044  0.0417
    1W        W59054  24.154   6.477   0.374  0.1681 -0.1584  0.0374
    1W        W59055  22.259   9.562   7.241  0.1378  0.1503 -0.0156
    1W        W59056  15.109  10.370   7.323  0.0681 -0.0983  0.2826
    1W        W59057  29.128  10.021   1.322  0.1684 -0.0193 -0.4171
    1W        W59058  10.952  14.844   8.025  0.4195 -0.0665 -0.0791
    1W        W59059  18.616  27.839   9.009  0.0655 -0.0739 -0.1822
    1W        W59060   9.548   0.677   6.997  0.0277 -0.2247 -0.1155
    1W        W59061  25.414  21.230   1.468  0.0171  0.2757  0.1962
    1W        W59062  22.132   2.013   7.405  0.1292 -0.2458 -0.0648
    1W        W59063  14.402   9.468   2.960 -0.1053  0.0149 -0.0522
    1W        W59064  20.365  21.841   8.039  0.1407  0.1100  0.4259
    1W        W59065   6.889  24.519   8.316  0.0056  0.2183  0.3197
    1W        W59066   4.226   1.094   8.943  0.2017  0.3064 -0.2601
    1W        W59067  20.152  18.492   1.107 -0.0108  0.0156  0.0679
    1W        W59068   2.567   5.899   7.402  0.3372  0.0001  0.1196
    1W        W59069  11.009  15.161   0.927 -0.0548  0.1385 -0.1263
    1W        W59070  26.618  14.409   0.943  0.0723  0.0177  0.0313
    1W        W59071  18.483   6.480   8.852  0.3463 -0.0889 -0.0633
    1W        W59072   5.893  15.987   7.211  0.1253 -0.2206  0.1802
    1W        W59073  24.016  11.567   0.478 -0.4553  0.3523 -0.0315
    1W        W59074   0.846   0.248   2.197  0.2287  0.3710  0.2117
    1W        W59075  10.068  15.505   1.500  0.0263  0.3876 -0.0450
    1W        W59076  28.288  22.519   1.288 -0.1376 -0.1700 -0.2750
    1W        W59077  12.226   9.134   2.800  0.2744 -0.1355 -0.1468
    1W        W59078  17.880   6.667   7.485  0.0946 -0.1727  0.0575
    1W        W59079  12.366  25.423   1.105 -0.0814 -0.2262  0.0681
    1W        W59080  15.316   0.597   6.441  0.1086 -0.1088 -0.0457
    1W        W59081  18.260  19.090   8.403 -0.0093  0.0980 -0.0650
    1W        W59082  22.577  14.117   1.667 -0.2752  0.1210 -0.0993
    1W        W59083   8.833  16.753   8.304 -0.1260 -0.2398  0.0322
    1W        W59084  10.779   5.538   7.743  0.0422 -0.3375  0.0336
    1W        W59085  19.715  24.692   1.092  0.0756 -0.3310  0.1077
    1W        W59086  25.358  28.933   0.582 -0.0105  0.0044 -0.0326
    1W        W59087   2.903  24.068   8.407  0.1497 -0.0510 -0.1197
    1W        W59088  16.465  20.714   0.060  0.0193  0.1888  0.2582
    1W        W59089   3.661   5.841   0.639  0.1566 -0.2104  0.2749
    1W        W59090  25.696  21.985   0.990  0.0168  0.0305 -0.3361
    1W        W59091  19.609   2.359   2.435  0.3390 -0.1609  0.1765
    1W        W59092   9.369   2.002   2.214  0.2451 -0.1560 -0.1064
    1W        W59093  12.332   8.085   3.340  0.2896 -0.0102  0.2728
    1W        W59094  22.094   1.740   6.859  0.1028 -0.1274 -0.0894
    1W        W59095   7.794   4.575   7.084 -0.2093  0.1265  0.0698
    1W        W59096  11.712   9.183   8.422 -0.0186 -0.0905  0.0563
    1W        W59097  18.437  27.734   6.752  0.0881  0.2108 -0.1385
    1W        W59098   7.907   1.677   1.419 -0.1191 -0.0705  0.2963
    1W        W59099   2.380  18.943   8.750  0.2434 -0.0240  0.0156
    1W        W59100  21.472  18.462   0.377 -0.0345 -0.1872  0.1252
    1W        W59101   7.322  26.233   0.670 -0.0901  0.3624  0.1663
    1W        W59102  21.951   0.935   0.145  0.0920  0.0090 -0.0292
    1W        W59103   1.887  20.631   0.320 -0.1353 -0.1074 -0.2522
    1W        W59104   3.471  21.023   7.837  0.1552 -0.0708 -0.0328
    1W        W59105  10.312  18.904   7.647 -0.0527  0.1738  0.2345
    1W        W59106   3.330  26.695   2.482  0.0587  0.0762  0.1304
    1W        W59107  19.189   2.446   1.522 -0.3048 -0.3575  0.0898
    1W        W59108   5.480   6.153   2.995  0.0889  0.1242  0.0343
    1W        W59109  13.591  28.424   0.037 -0.0521  0.1028 -0.4842
    1W        W59110  17.359  21.510   2.498 -0.0061 -0.2802 -0.1169
    1W        W59111  13.406  23.582   8.302 -0.1048  0.0788 -0.0720
    1W        W59112   7.926  21.166   8.203 -0.2261  0.0543 -0.0418
    1W        W59113  17.989   8.425   7.182 -0.0120 -0.0711 -0.0661
    1W        W59114  22.005  27.219   1.471  0.0452 -0.0742  0.0621
    1W        W59115   1.682  19.643   6.661  0.2526 -0.0474 -0.1441
    1W        W59116   5.904  20.621   0.615 -0.2673  0.2239 -0.1320
    1W        W59117   9.221   5.522   8.605  0.0115 -0.0859 -0.1473
    1W        W59118  16.367   7.796   8.187 -0.0379 -0.0425  0.0917
    1W        W59119   4.814  26.179   3.272  0.3388  0.0483  0.0589
    1W        W59120  25.924   7.361   8.515  0.4646 -0.1424  0.1732
    1W        W59121  25.680  28.914   1.562 -0.1140 -0.3046 -0.2380
    1W        W59122   0.458  22.963   0.113  0.0802  0.0083 -0.0823
    1W        W59123   1.435   1.060   2.529 -0.0069 -0.1329 -0.3251
    1W        W59124   7.176   6.165   1.986 -0.0844 -0.1625  0.3660
    1W        W59125   6.210   4.006   8.760  0.1776  0.2482 -0.0660
    1W        W59126  22.391  22.791   1.143  0.1203 -0.1112  0.2024
    1W        W59127  28.230  17.558   9.200  0.0431 -0.1685  0.3829
    1W        W59128  20.108   7.542   1.705  0.2535  0.0727  0.1327
    1W        W59129   3.568   5.688   0.145 -0.0355 -0.2123  0.0958
    1W        W59130  16.139  21.106   9.150 -0.1677  0.1541  0.0892
    1W        W59131  15.643  23.160   5.857  0.0610 -0.0678 -0.0906
    1W        W59132  26.207  27.826   7.552 -0.3481 -0.0635  0.0230
    1W        W59133  23.443  11.805   1.975 -0.0243  0.1188  0.0031
    1W        W59134   7.058  13.860   1.748 -0.1095  0.1254  0.2440
    1W        W59135   0.297  26.564   7.046 -0.2286  0.0448 -0.2452
    1W        W59136  16.025  26.581   1.967 -0.0292  0.0541  0.0546
    1W        W59137   6.406   2.059   8.570  0.0387  0.1520  0.1849
    1W        W59138   5.163  19.413   0.681 -0.1509  0.1979 -0.0260
    1W        W59139  27.093  24.759   2.890  0.0471 -0.1186 -0.0381
    1W        W59140  26.532   3.059   4.069  0.2725 -0.0682  0.0150
    1W        W59141  29.148  16.922   7.800 -0.1370 -0.3841 -0.0230
    1W        W59142  10.935  22.067   6.247  0.1287 -0.1944 -0.3012
    1W        W59143  17.388  10.005   0.817  0.1850 -0.2534  0.2995
    1W        W59144   9.835  25.467   7.828 -0.4106  0.1961  0.2632
    1W        W59145  23.372  21.302   6.745 -0.0609  0.0237  0.0228
    1W        W59146  16.196  26.749   6.597  0.0305  0.0688 -0.1110
    1W        W59147  19.177  29.638   1.953  0.0511 -0.1487 -0.0412
    1W        W59148  14.011  27.457   2.053  0.2835  0.1684  0.1822
    1W        W59149  27.557  18.193   7.408 -0.1932 -0.1259  0.1006
    1W        W59150   1.683  23.319   9.267 -0.0405 -0.1911  0.0245
    1W        W59151  26.416  20.441   0.000  0.0552 -0.0553 -0.0037
    1W        W59152  18.040  24.138   6.905  0.1032 -0.1169  0.0239
    1W        W59153  18.591  15.722   7.647  0.3977 -0.1287  0.0894
    1W        W59154   0.662   1.323   1.720  0.1049  0.0990 -0.0310
    1W        W59155   1.741  30.074   7.987 -0.0959  0.1387 -0.0482
    1W        W59156  11.195   9.264   8.333 -0.1532 -0.0126  0.0649
    1W        W59157   1.333  26.135   0.334 -0.0730  0.1293  0.0417
    1W        W59158  16.949  25.292   0.426  0.2857  0.0679 -0.0877
    1W        W59159  25.846   5.904   2.406  0.2883  0.3946  0.5214
    1W        W59160   3.480  28.074   7.367  0.0148  0.2935 -0.1745
    1W        W59161  18.672  25.626   3.000  0.2793 -0.1222  0.2428
    1W        W59162   4.446   0.580   2.693 -0.2901  0.1205 -0.2018
    1W        W59163  23.051  29.226   0.770 -0.0352 -0.1184  0.3454
    1W        W59164  14.231  21.334   1.873  0.1410  0.3392 -0.0703
    1W        W59165  11.226  27.726   3.093  0.1372  0.2423 -0.1120
    1W        W59166  29.472   8.597   0.331  0.2245  0.1401 -0.0621
    1W        W59167  17.659   5.521   0.208  0.0348  0.2620  0.2662
    1W        W59168   6.847  10.852   7.173 -0.2002  0.0094  0.0070
    1W        W59169   4.814   3.755   1.457 -0.0667 -0.0495  0.0028
    1W        W59170  14.654  29.907   7.273  0.0709 -0.0262  0.0287
    1W        W59171   5.935   9.221   0.698  0.0485  0.2491 -0.2639
    1W        W59172   9.610   3.314   2.436 -0.3982 -0.1472 -0.3068
    1W        W59173  29.095   9.324   1.784 -0.1888  0.0577  0.1215
    1W        W59174  10.454  15.927   1.097  0.0974 -0.0403  0.2931
    1W        W59175  18.798  16.008   7.971 -0.1360 -0.3240  0.1265
    1W        W59176   1.949  13.752   6.729  0.3353  0.3116  0.0550
    1W        W59177  17.167  22.556   0.713 -0.0287  0.0248  0.0559
    1W        W59178   9.283  16.436   8.722 -0.0997  0.2653 -0.1167
    1W        W59179  30.264  24.311   9.037  0.1264  0.1433 -0.2437
    1W        W59180  16.362   4.944   0.228  0.1411 -0.1674  0.0219
    1W        W59181  18.733  13.732   1.902  0.1053  0.0998 -0.1885
    1W        W59182  14.808   1.624   6.104 -0.1325  0.0832 -0.2316
    1W        W59183   9.930  18.847   0.906  0.0215  0.0461  0.0415
    1W        W59184  21.970   9.327   8.596 -0.0570  0.0680 -0.0958
    1W        W59185   5.484  28.357   2.646  0.1104  0.1586  0.0437
    1W        W59186   5.591  20.185   6.851 -0.1150 -0.0941  0.0495
    1W        W59187  16.069  23.738   7.836  0.3046  0.0154  0.0477
    1W        W59188   0.865   6.084   8.686 -0.1667  0.1152  0.0393
    1W        W59189  22.167  14.205   9.183 -0.2284 -0.0803  0.1919
    1W        W59190  20.851   3.562   3.428 -0.0697 -0.3154  0.1244
    1W        W59191   6.324   5.912   0.808 -0.2333  0.2038  0.1444
    1W        W59192  24.582  28.283   7.280 -0.0910  0.2095 -0.1343
    1W        W59193  11.741   5.862   1.425  0.0596  0.0604 -0.1448
    1W        W59194   0.942  13.843   2.233  0.1600 -0.1597 -0.1036
    1W        W59195  19.839   1.930   1.734 -0.0124 -0.3918 -0.2768
    1W        W59196   1.465  14.933   0.205  0.2657  0.1723 -0.2786
    1W        W59197  19.147   2.257   9.001 -0.0106  0.1404  0.1113
    1W        W59198  18.148  17.207   2.132 -0.2432  0.1726  0.0081
    1W        W59199  20.313   2.566   2.178 -0.0678 -0.0551  0.1863
    1W        W59200  23.889  25.126   1.709  0.1721  0.2702 -0.0666
    1W        W59201  13.070   0.745   1.622  0.1970  0.2955  0.1699
    1W        W59202  22.937  29.330   7.291  0.2182  0.1154  0.2280
    1W        W59203   5.010  15.474   2.437  0.2740  0.1131  0.1397
    1W        W59204  19.028   4.258   8.424 -0.1254  0.2542  0.1980
    1W        W59205  26.075   6.211   1.750 -0.0308  0.0626  0.0133
    1W        W59206  19.323   7.843   2.818 -0.0703 -0.1962  0.1327
    1W        W59207  10.240   1.896   7.339  0.0733  0.0798  0.1249
    1W        W59208  11.041  23.364   2.085 -0.0532  0.0210 -0.0130
    1W        W59209  15.988  20.563   0.240 -0.4286  0.0321  0.0919
    1W        W59210   6.796  24.089   7.322  0.1400 -0.1274  0.0239
    1W        W59211  27.055   7.187   8.973  0.0291 -0.0259  0.3139
    1W        W59212  15.738  13.451   0.581 -0.0388  0.1925  0.1768
    1W        W59213  22.756   1.817   7.399  0.1634 -0.2858  0.2418
    1W        W59214   4.499   5.511   1.137 -0.0756  0.0613  0.2836
    1W        W59215   5.528   0.944   1.764 -0.0227 -0.3284 -0.1066
    1W        W59216  24.655  24.352   7.024  0.1820  0.0644  0.5427
    1W        W59217  12.944  11.665   0.411 -0.0792  0.2526  0.0154
    1W        W59218  18.746  20.251   0.328  0.2190 -0.0157  0.1315
    1W        W59219   6.375  12.818   1.932  0.0114 -0.0583  0.1561
    1W        W59220  20.732  22.305   1.063 -0.2941  0.2447  0.2286
    1W        W59221  14.364  30.277   8.648 -0.0557 -0.5584 -0.0849
    1W        W59222   1.000  14.721   0.268  0.3755 -0.2504  0.1734
    1W        W59223  21.549  28.348   7.149 -0.3960 -0.1182 -0.4071
    1W        W59224  21.631  10.037   8.981  0.1169 -0.0717 -0.0266
    1W        W59225  19.841  19.427   8.317  0.1512 -0.1078 -0.0721
    1W        W59226  11.776  30.026   2.423 -0.0003  0.1513 -0.0965
    1W        W59227  28.052  13.015   8.488 -0.2031 -0.0681 -0.1132
    1W        W59228  18.945  14.806   6.831 -0.2132  0.0857 -0.1634
    1W        W59229  27.276  25.853   8.915 -0.0442 -0.1177  0.2275
    1W        W59230  21.740   5.405   1.546  0.0723  0.0662  0.1984
    1W        W59231   1.089  24.670   7.104  0.0537 -0.1541  0.1912
    1W        W59232  20.447  23.421   2.818 -0.4143 -0.0268  0.0305
    1W        W59233  17.150   7.300   0.394 -0.1599 -0.0522  0.2317
    1W        W59234  14.476   2.484   7.478 -0.0564  0.0761 -0.0076
    1W        W59235  22.800   9.712   8.530 -0.2351  0.0765 -0.1110
    1W        W59236  12.444   0.401   6.925  0.1123 -0.0397 -0.2697
    1W        W59237   8.230   8.076   0.783  0.0489 -0.0448  0.2697
    1W        W59238  15.308   4.350   8.629  0.0827 -0.0600 -0.1025
    1W        W59239  29.514  22.870   0.642 -0.1668  0.0590 -0.3767
    1W        W59240  16.582  26.561   3.400  0.0683 -0.2618  0.0507
    1W        W59241  19.632  24.496   7.920 -0.1323  0.2584 -0.1327
    1W        W59242  19.519   4.291   0.720  0.2330  0.0711 -0.4501
    1W        W59243   4.412  25.601   0.296  0.1081 -0.1647 -0.2358
    1W        W59244   0.950  27.657   8.398  0.2290 -0.0685 -0.3007
    1W        W59245  19.946  13.256   0.714 -0.0370 -0.0956 -0.0534
    1W        W59246  18.435   3.437   7.901  0.1515 -0.0059  0.1743
    1W        W59247  13.716  10.979   8.977 -0.2555  0.0826 -0.0793
    1W        W59248   9.190  26.064   6.589  0.2377  0.1391 -0.1040
    1W        W59249   2.809  11.602   9.057 -0.2172 -0.3250  0.0057
    1W        W59250  16.642   5.625   6.887 -0.1542 -0.1197 -0.1826
    1W        W59251  21.316   0.330   2.186  0.2219  0.0512 -0.0579
    1W        W59252  23.626  15.251   0.675  0.3906 -0.1715  0.2114
    1W        W59253  21.118  24.498   8.497 -0.0458 -0.1223  0.1245
    1W        W59254  25.287   0.884   8.212  0.0605 -0.0249 -0.2297
    1W        W59255  22.852  24.928   0.566 -0.0701  0.1024  0.0991
    1W        W59256  10.679   6.923   2.762 -0.0074 -0.1061 -0.3348
    1W        W59257   8.597  21.505   8.686 -0.1190  0.1368 -0.0564
    1W        W59258   2.294  25.355   7.436  0.2419  0.2334  0.0761
    1W        W59259  24.658  25.548   3.292  0.1537 -0.0445  0.1853
    1W        W59260  14.213   5.007   7.617  0.2696 -0.1695  0.1196
    1W        W59261  13.465  29.688   2.469  0.0985  0.2392  0.2478
    1W        W59262  15.285  29.890   0.694  0.0820  0.1474  0.0677
    1W        W59263   6.289  14.232   2.268  0.2449 -0.2300  0.0091
    1W        W59264  23.033   3.546   2.760  0.0120  0.0718  0.0580
    1W        W59265  26.788  16.857   0.351  0.2189  0.3803  0.3271
    1W        W59266  18.088  20.378   1.580  0.0402  0.4103  0.0078
    1W        W59267  15.827  25.554   2.236  0.3058 -0.0854 -0.2441
    1W        W59268   0.185  13.107   2.072 -0.3822  0.0755  0.0362
    1W        W59269   6.872  11.579   7.935 -0.2693  0.0166  0.1358
    1W        W59270   4.037  27.294   1.499  0.2878 -0.2547 -0.0084
    1W        W59271  20.790  29.573   1.704 -0.1766 -0.1851  0.0557
    1W        W59272   6.308  10.473   0.572  0.3021 -0.2019  0.3259
    1W        W59273  18.722  23.485   0.866  0.1792  0.5011  0.1107
    1W        W59274   7.724  25.274   2.741 -0.1284  0.1249  0.1306
    1W        W59275  23.382  28.445   2.542 -0.0164  0.1270  0.1410
    1W        W59276   0.256  23.286   1.519 -0.2280 -0.1678  0.1051
    1W        W59277   9.217   4.093   8.171 -0.4562 -0.0121 -0.1436
    1W        W59278  25.333  13.822   7.675 -0.1633  0.0212 -0.3652
    1W        W59279  11.212  24.991   2.191  0.1087 -0.1869  0.0077
    1W        W59280  16.524  20.487   7.688  0.3837  0.1100 -0.3306
    1W        W59281  18.758  16.526   7.102 -0.3021  0.0343  0.1073
    1W        W59282  16.584  27.984   1.800  0.0924 -0.3096  0.0529
    1W        W59283   5.947  25.350   1.553 -0.0557 -0.0250 -0.4267
    1W        W59284  14.374   8.832   0.941  0.1437 -0.1498  0.1749
    1W        W59285   4.264  19.076   0.705 -0.2330  0.0868  0.1220
    1W        W59286   3.976  22.067   7.315  0.1644 -0.2413  0.3865
    1W        W59287   3.718   4.012   7.541 -0.0217 -0.1846 -0.1577
    1W        W59288   6.938  17.162   5.991  0.2035  0.1543 -0.0673
    1W        W59289  13.173  11.365   8.019  0.0970  0.1573 -0.2019
    1W        W59290  17.615  29.763   1.405  0.0205 -0.0122  0.3367
    1W        W59291   9.018   5.484   7.244 -0.1596  0.1579 -0.0516
    1W        W59292  26.059   6.210   2.753  0.0967  0.0409 -0.2674
    1W        W59293  15.014   8.859   0.279  0.3642  0.0146  0.2382
    1W        W59294   8.003  30.274   0.603  0.2233  0.0863  0.0733
    1W        W59295  25.789   7.145   0.633  0.0549  0.1262  0.1571
    1W        W59296  28.188  14.613   0.581 -0.0993  0.1825  0.1711
    1W        W59297   6.456   7.303   6.534 -0.3245 -0.1037 -0.1946
    1W        W59298   4.875  13.967   1.511  0.0507 -0.0394  0.0174
    1W        W59299  20.009   0.362   6.850 -0.0025  0.0170 -0.2619
    1W        W59300   6.692   6.667   8.021 -0.4273  0.2208  0.0278
    1W        W59301  15.086  29.348   2.503 -0.1951 -0.0715  0.0083
    1W        W59302   0.484  18.170   6.945  0.0082 -0.2745 -0.1518
    1W        W59303  20.657   6.353   7.419  0.3015 -0.3043  0.2908
    1W        W59304   0.149  28.303   3.533  0.2996  0.1519  0.2621
    1W        W59305   8.957  26.227   1.753 -0.1775 -0.1780  0.0305
    1W        W59306  24.975  28.425   9.155 -0.0338 -0.0875  0.1729
    1W        W59307  10.668  28.678   1.089  0.0165  0.1360 -0.0408
    1W        W59308   7.307  11.803   7.064  0.2353  0.0720  0.1999
    1W        W59309   0.995  16.640   7.379 -0.1360  0.0738 -0.0880
    1W        W59310  20.963   5.906   7.836  0.2304  0.2395  0.2073
    1W        W59311  29.961   1.471   0.049 -0.1223  0.0088 -0.0041
    1W        W59312  17.024  19.215   7.410 -0.2549  0.0342 -0.0188
    1W        W59313  25.879  24.169   8.711  0.1454  0.0482 -0.1567
    1W        W59314  27.490  15.886   2.506  0.1450  0.1233 -0.0536
    1W        W59315  15.798  18.125   0.836  0.1606 -0.0879 -0.2467
    1W        W59316  24.508   4.237   2.860 -0.0251  0.2333 -0.1713
    1W        W59317   6.631   6.366   0.020  0.2406  0.3911 -0.5281
    1W        W59318  21.927  13.723   9.217  0.1210  0.3514  0.0825
    1W        W59319   2.109   6.731   8.186  0.2061 -0.1902  0.1920
    1W        W59320  24.890  24.221   1.988  0.1786 -0.1474  0.1173
    1W        W59321  17.759  28.592   0.673  0.1009  0.0800 -0.0030
    1W        W59322  30.057  22.435   0.076 -0.0160  0.0508  0.1732
    1W        W59323   6.715  25.419   7.946  0.4272  0.0619  0.2179
    1W        W59324  13.192  11.709   1.173  0.4566  0.2172 -0.1408
    1W        W59325  18.523  24.375   2.655  0.2076  0.1716 -0.0816
    1W        W59326  17.877  19.885   1.579 -0.1864  0.2008 -0.4220
    1W        W59327  22.870  23.984   7.610 -0.1469  0.2826  0.2300
    1W        W59328  10.914   3.043   5.935 -0.0132  0.0632  0.0776
    1W        W59329   7.625   2.895   1.877  0.1017 -0.1317 -0.2931
    1W        W59330   6.700   4.679   0.023  0.0996  0.3070 -0.3115
    1W        W59331  27.289  30.271   0.652 -0.1277 -0.1233  0.2401
    1W        W59332   8.474   3.106   8.899 -0.0648  0.0271  0.2250
    1W        W59333  20.618  16.752   9.065  0.0487  0.1150  0.2515
    1W        W59334  26.718  13.033   8.462 -0.2507 -0.0409  0.1501
    1W        W59335  12.099  22.222   6.910  0.1366  0.0107 -0.1113
    1W        W59336  14.635  14.482   3.598  0.0949  0.2099  0.2481
    1W        W59337  18.397  26.801   7.849  0.0948 -0.2602 -0.1513
    1W        W59338  11.509  25.690   9.226  0.1381  0.1875  0.1424
    1W        W59339   3.981  11.491   1.583 -0.1284 -0.3486 -0.0282
    1W        W59340  27.927   9.883   8.235  0.0041  0.1804 -0.0611
    1W        W59341   6.942   8.279   1.014  0.1922 -0.0275 -0.1173
    1W        W59342  16.404   1.308   2.130 -0.1681 -0.0018 -0.4057
    1W        W59343   2.519  22.613   8.314  0.0507  0.0246  0.1066
    1W        W59344   1.790  16.921   1.673  0.0650  0.0181  0.1382
    1W        W59345   3.952  26.685   0.310  0.3713  0.0271 -0.0942
    1W        W59346   0.917  26.019   2.526 -0.2317  0.2501 -0.1329
    1W        W59347  16.977  24.409   1.457 -0.2264 -0.1037  0.3098
    1W        W59348  16.854   1.061   2.202  0.2258  0.2390  0.0137
    1W        W59349  26.414   3.895   2.904  0.0684  0.3758  0.3304
    1W        W59350   5.774  27.042   1.389  0.0181  0.0938 -0.2171
    1W        W59351  14.985  21.011   7.194  0.1402  0.0627  0.2845
    1W        W59352  15.016  27.078   1.253  0.0087  0.0257 -0.1591
    1W        W59353   3.683  21.801   7.026 -0.1157 -0.0982  0.0014
    1W        W59354  14.887   2.896   7.819 -0.0010 -0.0076 -0.3392
    1W        W59355   9.467  29.470   8.093 -0.1144 -0.2946  0.2009
    1W        W59356   3.720  16.991   7.121 -0.1260  0.0532  0.1849
    1W        W59357  29.415  24.667   0.145  0.1189 -0.2907  0.0287
    1W        W59358   6.276  19.534   0.140 -0.2761  0.3460  0.0127
    1W        W59359   9.882  23.801   6.437  0.1550  0.1011 -0.0956
    1W        W59360  10.896  24.093   6.591 -0.1992  0.2357  0.0838
    1W        W59361  18.030  22.098   8.434 -0.1871  0.0222  0.0218
    1W        W59362  29.872  28.111   0.666  0.3645  0.0269 -0.2393
    1W        W59363  29.393  21.137   7.710  0.0387 -0.4752 -0.1252
    1W        W59364  25.212  29.781   1.409  0.1475 -0.1118  0.0782
    1W        W59365  24.351   6.108   1.369 -0.0091  0.3119 -0.0993
    1W        W59366   9.156   2.604   8.961 -0.4065  0.4432 -0.1902
    1W        W59367  23.289  27.122   2.233  0.2890  0.1103  0.0486
    1W        W59368  11.149  16.946   2.181 -0.2884  0.2975 -0.0813
    1W        W59369   7.376  27.819   2.281 -0.0023  0.1106  0.0199
    1W        W59370   7.213  26.194   7.792 -0.3405 -0.0762  0.2753
    1W        W59371  28.458  13.362   0.615  0.0569 -0.2853  0.2939
    1W        W59372   2.104   1.141   1.964 -0.2163  0.0095 -0.0460
    1W        W59373  19.238  15.830   8.131  0.0670  0.0902 -0.3454
    1W        W59374   1.853  18.936   0.932 -0.3417 -0.2430  0.1808
    1W        W59375  14.507  26.025   2.014 -0.0442  0.1016 -0.2067
    1W        W59376   3.199   1.793   2.429 -0.1302 -0.1420 -0.0398
    1W        W59377  23.441  29.475   8.106  0.0970  0.0049 -0.1291
    1W        W59378   1.561  25.124   0.193 -0.1489  0.4335  0.0686
    1W        W59379  21.706  11.063   2.266 -0.2171  0.0913 -0.1290
    1W        W59380   1.760  18.002   8.311  0.2352  0.1798 -0.2232
    1W        W59381  26.160  20.525   8.845 -0.0420 -0.2802  0.0023
    1W        W59382  22.062  19.997   0.598  0.0823 -0.3115 -0.0749
    1W        W59383  10.767  18.356   0.067 -0.2985 -0.1869 -0.0422
    1W        W59384  12.096  23.439   6.151 -0.0497 -0.1055  0.0794
    1W        W59385  16.453  26.256   2.943 -0.1313 -0.1072 -0.2014
    1W        W59386   3.501   2.731   8.395 -0.0693  0.3188 -0.0401
    1W        W59387  25.635  21.747   9.247 -0.0054  0.1241 -0.1480
    1W        W59388  27.087  10.328   1.936  0.1767 -0.0727 -0.2875
    1W        W59389  21.479  11.950   1.778  0.0355 -0.3232 -0.1672
    1W        W59390  14.426  28.590   8.005 -0.2485  0.0628  0.3793
    1W        W59391  15.757  16.645   8.789 -0.0264 -0.2477 -0.0539
    1W        W59392  27.991  10.224   6.399 -0.2808 -0.3759  0.2087
    1W        W59393   9.688   1.278   8.189  0.0588 -0.0217  0.0084
    1W        W59394  16.915  15.074   7.039  0.0061 -0.2436  0.4360
    1W        W59395  30.234  23.658   8.806 -0.1909  0.1066  0.1060
    1W        W59396  21.650   4.262   3.472 -0.0661  0.0832 -0.1545
    1W        W59397   8.159  20.899   7.307 -0.1535 -0.0524  0.1439
    1W        W59398   0.057  13.756   9.172 -0.1775  0.0711 -0.0381
    1W        W59399  10.274   0.580   1.218 -0.2261  0.1407  0.1539
    1W        W59400   7.923   9.790   6.733 -0.1873  0.0659  0.1182
    1W        W59401   8.572  17.453   7.563  0.2077 -0.3713 -0.0463
    1W        W59402   3.772  21.354   8.706  0.1974 -0.0853  0.0576
    1W        W59403  12.006  17.050   8.318 -0.1003 -0.2689 -0.0981
    1W        W59404  12.159   5.370   1.618  0.0303 -0.0247 -0.0291
    1W        W59405   4.706   5.326   8.040 -0.1692  0.2018 -0.2139
    1W        W59406  23.260  22.879   7.843 -0.0567  0.0300 -0.0515
    1W        W59407  28.239  18.332   0.569 -0.0533  0.0106 -0.0103
    1W        W59408   3.960  23.789   0.949 -0.0047  0.0191 -0.0598
    1W        W59409  26.870  15.860   0.870  0.2095 -0.1038  0.0803
    1W        W59410   6.296  27.831   1.628 -0.0033  0.1111 -0.1094
    1W        W59411  14.774  16.269   3.069  0.2076  0.1109  0.0357
    1W        W59412   4.561  26.891   0.501 -0.1506 -0.2418 -0.3171
    1W        W59413  20.376  18.730   7.286 -0.1954 -0.2733  0.1101
    1W        W59414   8.617  29.156   0.280  0.0910 -0.1184 -0.4172
    1W        W59415   8.043  17.363   1.752 -0.4158  0.0547 -0.1387
    1W        W59416   9.887  22.526   7.011  0.0979  0.2099  0.0363
    1W        W59417  24.625  29.179   0.284 -0.1410 -0.0039 -0.0443
    1W        W59418   3.761  25.500   2.123  0.0207 -0.1369  0.0288
    1W        W59419   8.264   9.314   7.756 -0.0029  0.0262 -0.0012
    1W        W59420   3.507   0.224   1.011  0.1213 -0.1136  0.1662
    1W        W59421   5.283   3.337   2.689  0.0054 -0.0673 -0.0314
    1W        W59422  24.657  18.718   6.212  0.1397  0.0366 -0.0042
    1W        W59423  12.157   3.445   2.268 -0.2130 -0.1814  0.3908
    1W        W59424   0.353  27.560   0.289  0.3490 -0.1231 -0.2893
    1W        W59425  13.387   8.865   7.888 -0.0555  0.1925 -0.1321
    1W        W59426   9.119   8.165   3.651  0.0625 -0.2220 -0.1926
    1W        W59427  19.895  23.774   8.446 -0.0081 -0.0240  0.2185
    1W        W59428  23.383  14.330   6.842 -0.0356 -0.0800  0.1185
    1W        W59429   7.556  23.590   7.926  0.0356  0.0582  0.0554
    1W        W59430  26.438  23.831   0.157 -0.0200 -0.5770  0.4276
    1W        W59431  22.368  21.511   0.195 -0.1851 -0.0735  0.0408
    1W        W59432   2.333  19.862   8.050 -0.2038 -0.0574  0.1501
    1W        W59433  28.027  11.186   1.539  0.2533 -0.2300 -0.2301
    1W        W59434  26.147   7.197   8.034 -0.1566 -0.3012 -0.1155
    1W        W59435   8.660  23.879   9.205 -0.3910 -0.1559 -0.0126
    1W        W59436  28.905   5.873   8.255 -0.0912 -0.2992  0.0344
    1W        W59437  18.448   1.428   7.318  0.1814  0.3185  0.2232
    1W        W59438  14.908  21.349   6.825 -0.1624  0.4926 -0.0110
    1W        W59439  15.093  25.320   7.306 -0.2329 -0.0641 -0.2301
    1W        W59440   8.839  22.726   6.691 -0.0555  0.0903  0.0136
    1W        W59441   3.133  13.449   6.076 -0.2454  0.2152 -0.2296
    1W        W59442  15.751   2.220   3.068 -0.2897  0.1091 -0.0709
    1W        W59443   5.018  28.161   1.775  0.0376 -0.1515 -0.1537
    1W        W59444  20.877  29.102   0.866  0.1569 -0.2806  0.0968
    1W        W59445  12.765  19.237   0.967 -0.2661 -0.4306 -0.1310
    1W        W59446  28.747  12.390   8.182 -0.2589  0.2669 -0.2385
    1W        W59447   5.038  12.130   2.557 -0.1193  0.2551 -0.4687
    1W        W59448  14.227   9.894   9.142 -0.4454  0.0686  0.1502
    1W        W59449  10.463   6.157   7.116  0.1874  0.1654  0.0636
    1W        W59450   2.272   9.907   8.913 -0.1318 -0.3282 -0.1176
    1W        W59451  21.883  15.716   1.291 -0.0840 -0.0141  0.0561
    1W        W59452   4.744  16.020   0.259 -0.0547  0.0327 -0.3067
    1W        W59453   8.374   5.588   0.577  0.0827  0.3037  0.0423
    1W        W59454  16.918  27.603   8.444 -0.1884  0.0651  0.0919
    1W        W59455  27.569   7.920   2.095 -0.2739 -0.2405  0.0044
    1W        W59456  18.396  16.849   7.121  0.1981 -0.2141  0.0338
    1W        W59457  16.830  13.611   2.120  0.1727  0.0374  0.4232
    1W        W59458   0.147   9.706   7.558 -0.1195 -0.2087  0.1165
    1W        W59459  12.537   1.064   3.170 -0.3762  0.1858  0.0507
    1W        W59460  19.335  16.282   2.362  0.0161 -0.0194 -0.1067
    1W        W59461  21.491  30.166   7.106  0.0552  0.1585  0.0497
    1W        W59462   5.879  11.372   9.257 -0.0002 -0.0841  0.2410
    1W        W59463  15.839   5.130   6.192 -0.1600 -0.3124  0.1973
    1W        W59464   2.581  23.950   0.763  0.1495  0.3701 -0.2863
    1W        W59465  14.204  18.279   8.954 -0.3885 -0.0507 -0.0494
    1W        W59466  11.933  27.415   7.165  0.1423 -0.1761  0.0671
    1W        W59467  21.498  17.016   1.512 -0.2520  0.3107 -0.1550
    1W        W59468  10.042   9.807   8.830  0.0780  0.0094 -0.2230
    1W        W59469  19.757  10.615   1.041 -0.0008  0.1114  0.0183
    1W        W59470  14.417  22.242   6.737  0.0506  0.1404  0.2159
    1W        W59471  12.979  13.440   7.195 -0.0419  0.2739  0.3291
    1W        W59472  16.847  23.548   0.945 -0.2884 -0.2549  0.1312
    1W        W59473   0.145   9.654   0.964  0.0189 -0.2527 -0.2197
    1W        W59474  15.195  25.703   2.739 -0.0585 -0.1564  0.0528
    1W        W59475  28.061  28.975   7.848  0.0222 -0.1642 -0.0818
    1W        W59476  25.109  16.812   8.588  0.1888  0.1123 -0.1124
    1W        W59477  13.423   1.210   6.245  0.0171  0.0558 -0.0636
    1W        W59478  16.766   3.944   2.144 -0.0427 -0.2131 -0.1084
    1W        W59479   8.664   1.394   8.655 -0.0670 -0.0085 -0.0036
    1W        W59480  15.139  27.859   7.136  0.1730 -0.0533  0.0294
    1W        W59481  22.423  11.395   8.098  0.2619  0.4216 -0.1975
    1W        W59482   7.015  19.430   8.819 -0.1086  0.0680 -0.1464
    1W        W59483   3.919   3.756   0.968 -0.4787  0.2865 -0.1340
    1W        W59484  23.915  22.989   1.792  0.1844 -0.1954  0.1706
    1W        W59485  17.475  11.931   0.493  0.0944 -0.1473  0.0752
    1W        W59486  24.166  12.106   6.366 -0.2421 -0.2336 -0.1515
    1W        W59487  25.814  11.319   7.780 -0.4154 -0.1507  0.0126
    1W        W59488  23.403  19.596   8.120 -0.3238 -0.0104  0.1379
    1W        W59489  17.625   1.767   6.963 -0.0692  0.1768 -0.0884
    1W        W59490  29.762   2.777   7.060  0.1948 -0.1000  0.0382
    1W        W59491  17.173  11.169   0.794  0.2361 -0.1450  0.0508
    1W        W59492   4.053  17.765   0.952  0.1836 -0.2551 -0.1295
    1W        W59493   2.376  21.774   7.018  0.2242  0.0342  0.1148
    1W        W59494   3.499   4.128   2.193  0.0607 -0.0353  0.1883
    1W        W59495   2.659   8.398   9.259 -0.1865 -0.1988  0.0936
    1W        W59496   7.298  10.556   6.449  0.0615 -0.2512  0.1370
    1W        W59497  11.001   7.991   1.833  0.2387  0.0685 -0.0465
    1W        W59498  16.756  19.029   9.112  0.1081 -0.1307  0.0161
    1W        W59499  15.187   8.114   6.069 -0.1430  0.1139 -0.2158
    1W        W59500   0.473  24.828   1.420  0.0542 -0.3477  0.0721
    1W        W59501  26.586  14.978   7.302 -0.0897  0.0694  0.1724
    1W        W59502   5.777  25.006   1.906  0.4417 -0.0297 -0.3714
    1W        W59503  27.604   1.144   1.341  0.1717 -0.0176 -0.0429
    1W        W59504  29.779  27.394   0.868 -0.2223  0.2333  0.1810
    1W        W59505  29.663   2.809   9.009 -0.3257 -0.1972  0.2565
    1W        W59506  29.052  23.010   2.140 -0.1976 -0.1595 -0.1059
    1W        W59507   4.273   7.941   2.350 -0.0763 -0.1144  0.0152
    1W        W59508  19.332   2.808   2.485  0.0375  0.1101  0.3215
    1W        W59509  13.622  18.631   2.600  0.2636  0.1364 -0.0301
    1W        W59510  18.007   4.681   0.059  0.1751 -0.2541 -0.1266
    1W        W59511  19.308  28.177   1.807 -0.1670  0.0828  0.2230
    1W        W59512  23.965  27.554   7.513 -0.1732  0.0153 -0.1276
    1W        W59513   5.084  19.854   8.625 -0.2249 -0.4522  0.0231
    1W        W59514  20.205   0.795   6.646  0.0495  0.0111  0.1751
    1W        W59515  12.989  18.412   7.362 -0.1699 -0.2348  0.0514
    1W        W59516  10.249  17.923   1.081 -0.1425 -0.1808 -0.2268
    1W        W59517  19.736  15.048   8.482  0.3276 -0.0846  0.1932
    1W        W59518   3.735   6.369   0.700 -0.2211 -0.1080 -0.2199
    1W        W59519   9.989   6.937   8.868  0.0732 -0.1906 -0.1530
    1W        W59520  13.308   3.444   7.299  0.0882  0.2168  0.0957
    1W        W59521  12.733  19.478   6.669  0.1382 -0.0156 -0.3269
    1W        W59522  24.677  28.853   7.253  0.0636 -0.0794  0.1147
    1W        W59523  22.006  28.002   8.550  0.2205 -0.2180 -0.0006
    1W        W59524  25.473   3.518   3.396  0.1608  0.1155 -0.2529
    1W        W59525   1.390   4.308   7.062 -0.1061  0.0502  0.0487
    1W        W59526  22.843   7.413   1.457 -0.1238  0.2270 -0.1068
    1W        W59527  26.839   0.589   7.686  0.0302  0.3144  0.4756
    1W        W59528   1.148  22.803   2.471  0.3567  0.1093  0.1845
    1W        W59529  13.416  11.812   1.617 -0.0133  0.2064 -0.1478
    1W        W59530  27.745  17.577   9.047  0.0079 -0.1660 -0.1059
    1W        W59531  20.805  11.835   0.357  0.1293 -0.1120  0.0840
    1W        W59532  20.295  26.940   0.008  0.0897 -0.0208  0.2020
    1W        W59533   1.959  22.058   7.030 -0.0945  0.0284 -0.1201
    1W        W59534   7.635  15.450   8.708 -0.3124 -0.0297  0.0663
    1W        W59535   1.359   5.033   1.695  0.0820  0.0176  0.1232
    1W        W59536  10.903  29.873   7.217 -0.0258 -0.1436 -0.1757
    1W        W59537   2.771  21.062   1.973  0.0653  0.2222  0.0508
    1W        W59538   4.395  22.178   0.972  0.1685  0.0695 -0.0299
    1W        W59539  12.020   2.498   2.562  0.0808 -0.0298  0.4489
    1W        W59540  25.291  26.379   2.393 -0.1410 -0.0632  0.4318
    1W        W59541  19.718  18.759   0.910  0.1703  0.1089 -0.3328
    1W        W59542  12.073  10.647   3.473  0.1960 -0.0259 -0.1011
    1W        W59543  15.536   6.446   5.756  0.3469 -0.1856  0.2268
    1W        W59544  18.844   3.961   6.641  0.0429 -0.0455  0.1007
    1W        W59545  19.911  27.723   8.024  0.1341  0.0301  0.0032
    1W        W59546  16.474   5.777   5.329 -0.0499 -0.0228  0.2904
    1W        W59547  15.801  18.559   8.444  0.2017 -0.1306 -0.3018
    1W        W59548  17.286   3.592   6.623 -0.0883  0.0621  0.1638
    1W        W59549   2.661  26.398   3.589  0.4976 -0.2238  0.1316
    1W        W59550  29.900  16.290   1.544  0.0807  0.0117 -0.2217
    1W        W59551  26.604   1.752   0.846 -0.0817  0.3225  0.1342
    1W        W59552  19.119  26.564   7.798  0.1615 -0.2437 -0.2545
    1W        W59553  14.435   9.416   0.642  0.1199  0.0632  0.2085
    1W        W59554  11.681  10.027   3.510 -0.0922  0.2067 -0.1361
    1W        W59555  19.302   4.850   7.332 -0.0181  0.2374 -0.2442
    1W        W59556  27.871  25.676   7.309 -0.1852  0.2182 -0.1631
    1W        W59557  16.281  23.958   1.669  0.1014 -0.0011 -0.1598
    1W        W59558   4.213  18.552   9.038 -0.0935 -0.1420 -0.0554
    1W        W59559  22.404  13.288   1.028 -0.1395 -0.1407 -0.0557
    1W        W59560  10.920  18.154   0.544  0.0293  0.1098 -0.0295
    1W        W59561   5.292  22.411   0.988 -0.0718 -0.0362  0.1165
    1W        W59562  14.281  16.963   2.200 -0.0787 -0.1023 -0.0920
    1W        W59563   9.103  14.944   8.010  0.1118 -0.3313 -0.0822
    1W        W59564  21.149  19.042   0.229 -0.1217 -0.0458 -0.0927
    1W        W59565  25.833  29.762   0.750  0.0860  0.1014  0.0070
    1W        W59566   2.403  26.780   0.307  0.1857 -0.1803  0.3726
    1W        W59567  14.132   2.114   0.771 -0.0002 -0.2394  0.2506
    1W        W59568   9.597  11.141   0.266 -0.1435 -0.1607 -0.2027
    1W        W59569   9.085  10.705   7.604 -0.2185  0.2326 -0.0975
    1W        W59570  20.085   5.921   0.989  0.0766  0.3278 -0.0931
    1W        W59571   3.963  20.147   1.071 -0.3157  0.2318  0.0541
    1W        W59572  15.244  19.331   0.994 -0.0168 -0.2803 -0.5519
    1W        W59573  18.532   3.479   0.225 -0.1705  0.1196  0.1280
    1W        W59574  13.518   3.623   8.465  0.2836  0.0427  0.0525
    1W        W59575  12.664  23.706   0.084  0.0318  0.0622  0.3922
    1W        W59576  24.128  21.689   1.543 -0.2772 -0.0995 -0.1531
    1W        W59577   9.284   8.073   9.255 -0.3414 -0.3498 -0.0326
    1W        W59578   9.822  11.504   2.433 -0.1359  0.0384  0.0172
    1W        W59579  18.338  12.317   0.203 -0.1042 -0.0049  0.0353
    1W        W59580  30.270  22.909   9.165  0.3026  0.2421 -0.1631
    1W        W59581  26.214  12.884   8.664  0.0228  0.0601  0.0325
    1W        W59582  22.516  28.235   6.624  0.2145  0.0074  0.1437
    1W        W59583  17.398   9.754   8.019 -0.2291 -0.2083  0.1413
    1W        W59584   7.585   6.786   7.819 -0.0534  0.1508  0.1640
    1W        W59585   3.692  17.477   8.366  0.1345 -0.0189 -0.2836
    1W        W59586  14.809   0.687   7.068  0.0449  0.0609  0.0053
    1W        W59587   4.630  14.864   1.342  0.3410  0.1758 -0.0537
    1W        W59588   9.705  10.128   8.635  0.3681 -0.1412 -0.0283
    1W        W59589   0.106  16.151   0.757  0.0318  0.3812 -0.0524
    1W        W59590   1.696   4.815   0.860 -0.1432 -0.1210  0.2087
    1W        W59591  10.673  12.375   8.077  0.2475  0.1175  0.0640
    1W        W59592  22.695  11.997   7.507 -0.0697  0.0908 -0.0583
    1W        W59593   2.712  25.890   3.787  0.0700 -0.3464  0.2189
    1W        W59594  25.988  10.675   6.512  0.2514  0.3520  0.0052
    1W        W59595  22.730  22.194   1.448 -0.0934 -0.1674 -0.0396
    1W        W59596  14.720   7.780   8.298  0.1101 -0.3273  0.0763
    1W        W59597  15.482   7.744   9.182  0.0379 -0.0484  0.0245
    1W        W59598  15.928   8.564   7.767  0.0983  0.1422 -0.3288
    1W        W59599  23.554   6.850   7.395 -0.1130 -0.0189 -0.0745
    1W        W59600  15.846  16.674   7.723  0.4655 -0.3110 -0.1093
    1W        W59601  10.120  26.776   7.870 -0.1338 -0.1324  0.1234
    1W        W59602  16.500  29.117   0.269  0.5216  0.3604 -0.0054
    1W        W59603  26.611  22.253   0.026 -0.1945  0.0191 -0.1851
    1W        W59604  17.610  24.027   6.479 -0.2479  0.0227  0.2611
    1W        W59605  25.875  19.496   7.185  0.0052 -0.2687  0.1509
    1W        W59606   8.054  21.355   0.491  0.0585  0.0592  0.1909
    1W        W59607   7.070   4.272   0.380 -0.1730  0.0415 -0.1541
    1W        W59608  23.034  19.565   2.430 -0.2367 -0.0523  0.0485
    1W        W59609   6.871  16.222   7.600  0.0743 -0.1522  0.0118
    1W        W59610  12.430  14.300   7.509 -0.2856 -0.0922 -0.1447
    1W        W59611   7.739  30.287   7.779 -0.1113 -0.0107 -0.2132
    1W        W59612  12.796   7.804   0.385 -0.1818  0.0035 -0.0898
    1W        W59613  20.651  20.153   0.191  0.0560  0.1715 -0.0830
    1W        W59614  23.750  14.654   7.061 -0.0132 -0.3274 -0.1245
    1W        W59615  15.383  22.315   8.805  0.0609  0.0185  0.1631
    1W        W59616  26.564  24.046   2.299  0.0365  0.3322 -0.2411
    1W        W59617  26.843  19.870   7.944  0.1297 -0.2766  0.1603
    1W        W59618   3.744  20.185   8.159 -0.2308  0.0922  0.1828
    1W        W59619  28.833   8.877   8.214  0.2550  0.1109 -0.0827
    1W        W59620  28.085   5.804   1.862  0.2600  0.1611 -0.1753
    1W        W59621   1.235   1.921   7.225  0.2247 -0.0606 -0.0812
    1W        W59622   3.134  20.146   6.742  0.2961  0.0875 -0.0721
    1W        W59623  29.120   4.224   2.082  0.0102 -0.3358 -0.0890
    1W        W59624   6.501  17.748   7.265 -0.0385  0.1603 -0.1783
    1W        W59625  29.230   2.895   1.137 -0.0809 -0.0219  0.2160
    1W        W59626  20.406  28.433   0.404 -0.3644  0.2752  0.0383
    1W        W59627   8.901  22.759   7.360 -0.1754 -0.0412  0.1281
    1W        W59628   3.203  22.018   7.301  0.1830  0.0972  0.0120
    1W        W59629  17.009  10.730   8.795 -0.0617  0.0600  0.0472
    1W        W59630   0.820  23.866   2.749 -0.1813 -0.1513 -0.0130
    1W        W59631   0.896  28.928   8.149  0.0976  0.0889  0.2790
    1W        W59632  22.039  18.165   1.803 -0.1434 -0.0307 -0.1272
    1W        W59633   5.697  27.814   7.972 -0.0881  0.0297 -0.1938
    1W        W59634   5.567  21.593   7.487 -0.0686 -0.1603  0.3109
    1W        W59635  23.773  19.520   6.766  0.2121 -0.1744 -0.1517
    1W        W59636   1.481  29.935   1.220 -0.0534 -0.1746  0.1098
    1W        W59637  22.104   2.236   8.246 -0.3437  0.1378 -0.0347
    1W        W59638  20.206  17.423   7.019  0.1355  0.1654  0.2213
    1W        W59639  12.132  15.682   7.992 -0.4015 -0.2160  0.1161
    1W        W59640  26.653   0.098   2.469  0.1861  0.1600  0.1252
    1W        W59641  12.468  12.232   0.924  0.3618 -0.0034 -0.0463
    1W        W59642   2.367   9.200   0.450 -0.0139 -0.0360  0.4158
    1W        W59643   9.579  28.294   8.254  0.1890  0.0971  0.1591
    1W        W59644  15.008  15.919   7.654  0.5323  0.2986  0.1490
    1W        W59645  27.869  13.950   8.275  0.0334 -0.0011  0.0083
    1W        W59646  26.548  21.145   7.776 -0.1129 -0.4192 -0.0370
    1W        W59647  10.834   3.580   6.751  0.0190  0.0071  0.1444
    1W        W59648   4.295  28.991   3.212 -0.2045 -0.0802 -0.4727
    1W        W59649   6.017  13.036   1.672  0.4808  0.1742  0.0104
    1W        W59650   8.861  15.588   1.861  0.1767  0.0966  0.0866
    1W        W59651  14.247  27.467   1.572 -0.0944  0.2713 -0.2745
    1W        W59652  14.285   1.130   2.191  0.3443 -0.3422  0.0622
    1W        W59653   6.992  18.048   1.327 -0.1162 -0.0185  0.1279
    1W        W59654   0.184   3.796   2.836 -0.0466 -0.2840 -0.0016
    1W        W59655  13.449  11.816   0.690 -0.0566  0.0274 -0.1448
    1W        W59656  29.839   6.951   7.808  0.1189 -0.3239 -0.0735
    1W        W59657  23.809   3.357   1.561 -0.0796 -0.0223 -0.0408
    1W        W59658   3.115  28.795   6.952  0.0805 -0.0904  0.1668
    1W        W59659  29.448  10.558   0.034  0.3436 -0.0081  0.0634
    1W        W59660   1.967  27.430   7.844  0.0040  0.1372 -0.1604
    1W        W59661  22.912   2.548   8.614 -0.0962  0.0481  0.0858
    1W        W59662  13.549   7.112   8.249 -0.0998 -0.1440  0.0700
    1W        W59663  14.845  29.524   1.576 -0.0358 -0.1639  0.0150
    1W        W59664  19.911   2.317   6.388  0.0644  0.0214 -0.0659
    1W        W59665   4.935  25.247   8.269 -0.3977  0.2319  0.0620
    1W        W59666  29.401   5.035   9.032 -0.0389  0.0468  0.0277
    1W        W59667  25.665  21.913   8.252 -0.0489 -0.0052  0.0545
    1W        W59668  26.122  29.042   3.053  0.2346  0.2370  0.1557
    1W        W59669  27.429   4.511   3.533  0.0144 -0.1494 -0.2251
    1W        W59670  19.653   8.343   1.363  0.4390  0.0421 -0.4048
    1W        W59671  20.916   4.797   1.927  0.3605 -0.1344  0.3653
    1W        W59672  18.473  10.599   8.021 -0.1557 -0.5367  0.1522
    1W        W59673   9.612  13.946   8.392 -0.2983 -0.2248 -0.1762
    1W        W59674  19.518  13.514   0.554 -0.4333 -0.0185 -0.0283
    1W        W59675  15.731   5.181   8.790  0.3315  0.0995 -0.0456
    1W        W59676  26.015  22.563   0.778 -0.0351 -0.2159 -0.0110
    1W        W59677  23.417   0.102   8.170  0.1297 -0.2566  0.2028
    1W        W59678  14.862  10.349   7.824 -0.3774 -0.0374 -0.2234
    1W        W59679  21.784   3.424   2.137 -0.2517  0.1883  0.0383
    1W        W59680  12.593   6.138   0.814 -0.1278  0.3161 -0.3003
    1W        W59681   6.497  28.263   7.287  0.0925 -0.0258  0.2946
    1W        W59682   5.516   5.849   9.264  0.0694  0.0998 -0.0208
    1W        W59683   8.759   8.250   7.493  0.1454  0.1651 -0.2757
    1W        W59684  18.738   7.083   6.440 -0.1593  0.1753  0.0255
    1W        W59685  23.903   2.485   1.931 -0.0252 -0.1337 -0.1871
    1W        W59686  12.040  10.300   8.581  0.0043 -0.0656  0.1607
    1W        W59687   7.870  29.641   2.925  0.3970 -0.0939 -0.2768
    1W        W59688   1.118  14.224   0.350 -0.0982 -0.2274 -0.0941
    1W        W59689  11.502  23.005   8.036 -0.0008  0.3270 -0.0043
    1W        W59690  10.608  13.820   7.960  0.0063  0.2517 -0.2585
    1W        W59691  18.365  16.102   2.425  0.2684 -0.3286  0.1188
    1W        W59692  22.864  19.863   8.264  0.1186  0.0458 -0.0191
    1W        W59693   8.784   4.995   6.946 -0.2119 -0.1297 -0.0111
    1W        W59694  21.933   7.984   1.868  0.1779  0.2961  0.3942
    1W        W59695   4.716   2.578   7.748 -0.0425  0.2347  0.0969
    1W        W59696  17.540   4.529   6.319 -0.4573 -0.1746 -0.2182
    1W        W59697  28.593  12.870   1.693  0.1666  0.4980 -0.1025
    1W        W59698   3.691  10.761   7.767 -0.0910 -0.1978  0.1215
    1W        W59699  23.269   9.848   6.979  0.3072  0.0546  0.0883
    1W        W59700   0.180  17.764   6.777  0.3315  0.1527 -0.2516
    1W        W59701  19.928  18.298   1.536 -0.0757  0.0790  0.1890
    1W        W59702  23.725  16.791   8.843  0.1372  0.2322 -0.1784
    1W        W59703  28.525  11.787   1.389 -0.2492 -0.0005  0.1748
    1W        W59704   7.556  25.192   0.641 -0.2197 -0.2043  0.1647
    1W        W59705  14.777  10.484   2.715 -0.2230  0.1410  0.2405
    1W        W59706  16.114  15.774   3.371  0.1339 -0.1284  0.3117
    1W        W59707   5.285  17.617   6.637 -0.2744  0.1179 -0.0628
    1W        W59708  10.738   8.968   0.358 -0.0321  0.0996  0.0293
    1W        W59709   7.357  23.998   8.957 -0.1548 -0.1632 -0.0636
    1W        W59710  13.081  20.861   5.877 -0.0707  0.1521  0.2496
    1W        W59711  17.759   5.513   1.924  0.0189  0.3342  0.1595
    1W        W59712  16.850  19.433   8.723  0.0758  0.2512 -0.0900
    1W        W59713  18.283  25.404   8.810 -0.1249  0.0599 -0.1081
    1W        W59714  17.987   8.777   7.574  0.1782 -0.1545 -0.0324
    1W        W59715  12.290   1.975   8.750  0.3877  0.0902  0.1014
    1W        W59716   8.936   7.148   1.420  0.0773 -0.0119  0.0160
    1W        W59717  17.968  17.500   2.495 -0.2598  0.0448 -0.0676
    1W        W59718   4.501   0.060   2.869  0.0091 -0.0310  0.1740
    1W        W59719  20.018   7.100   6.666 -0.4301 -0.2004 -0.0080
    1W        W59720   6.106  18.704   7.493  0.0428 -0.1346 -0.3154
    1W        W59721  21.821   6.798   7.031 -0.0905  0.0831 -0.2408
    1W        W59722  16.982  27.457   6.906  0.2844 -0.2010  0.1583
    1W        W59723  10.435   4.816   0.969  0.2333  0.0962 -0.1399
    1W        W59724   7.238  19.720   8.141  0.2798  0.2164 -0.2745
    1W        W59725  14.551  16.676   7.663  0.0957  0.2203 -0.1341
    1W        W59726   5.010  19.603   7.492 -0.1562 -0.2568 -0.0599
    1W        W59727  24.500  28.210   7.734 -0.1846  0.1730 -0.0506
    1W        W59728  19.923  18.886   1.584 -0.0170  0.1763 -0.1598
    1W        W59729   5.022  21.318   6.374 -0.0373 -0.1053 -0.1227
    1W        W59730  24.612   3.436   9.113 -0.2019 -0.0575 -0.0951
    1W        W59731   6.009  11.037   7.808 -0.1697 -0.0949  0.1118
    1W        W59732   5.351  10.883   0.620  0.1270  0.1965  0.3741
    1W        W59733   9.879  16.414   7.051  0.1330 -0.2424  0.0013
    1W        W59734  14.310  17.746   1.320 -0.1768 -0.2712  0.3068
    1W        W59735  19.609   4.337   1.261  0.0177 -0.1613  0.3460
    1W        W59736  26.750  13.085   7.281 -0.1023 -0.1801  0.1203
    1W        W59737   7.708   6.273   1.880  0.0730 -0.2639  0.0407
    1W        W59738  16.876  28.893   8.604 -0.2038  0.2477 -0.0244
    1W        W59739  18.434   6.043   0.200 -0.0915 -0.4343 -0.0957
    1W        W59740   7.817  28.913   0.069 -0.2959 -0.1096 -0.0392
    1W        W59741   7.167   6.562   7.407  0.4526  0.0461  0.0747
    1W        W59742  26.297  14.593   1.447  0.0834 -0.0755  0.0953
    1W        W59743  19.312   0.225   7.915  0.2050 -0.4231  0.2772
    1W        W59744   3.017   7.774   2.603 -0.0029  0.0447 -0.0593
    1W        W59745  16.862   3.411   2.905  0.2879  0.1735  0.0675
    1W        W59746  28.696  19.786   1.436 -0.1200 -0.0702 -0.0656
    1W        W59747  18.990  22.424   0.826 -0.2147  0.0212 -0.0054
    1W        W59748  11.118  26.637   9.105  0.4154 -0.2915  0.0062
    1W        W59749  29.544  23.614   0.907 -0.3340 -0.2420 -0.0708
    1W        W59750  23.954   5.809   8.289  0.3562  0.2361  0.2231
    1W        W59751   0.718   4.955   2.342 -0.2439 -0.0561 -0.0333
    1W        W59752  25.912   8.045   2.339  0.0443 -0.1936  0.3233
    1W        W59753  26.007   8.837   7.851  0.0481 -0.0285 -0.1085
    1W        W59754   8.384  16.961   1.620 -0.3315 -0.1149 -0.1646
    1W        W59755  12.725  27.988   0.329  0.0343  0.0672  0.4285
    1W        W59756   3.433  18.611   7.792  0.0403  0.0147  0.0345
    1W        W59757  26.743  17.006   7.035  0.1189 -0.5284 -0.1199
    1W        W59758  11.581  21.421   1.774  0.0302  0.0712 -0.2505
    1W        W59759   9.981   6.096   7.702 -0.1036  0.1598 -0.2478
    1W        W59760  20.151   6.793   1.206 -0.0966  0.1592  0.2464
    1W        W59761  15.738   8.850   1.060  0.1395  0.2473 -0.1134
    1W        W59762  28.510  26.234   8.014 -0.0795 -0.2056  0.0165
    1W        W59763  29.302  26.364   1.439  0.1422  0.3172 -0.0902
    1W        W59764  20.953  12.995   1.592 -0.1183  0.0105 -0.2272
    1W        W59765   7.484  17.036   9.047 -0.4315 -0.1347  0.3276
    1W        W59766   7.416   6.689   1.991  0.1909  0.0236  0.1549
    1W        W59767   3.301  22.439   0.953  0.1362 -0.0457  0.0640
    1W        W59768  10.753  10.167   7.527 -0.5833  0.1875 -0.0097
    1W        W59769   7.805  14.856   0.663  0.0340 -0.3831 -0.0012
    1W        W59770  29.742  16.651   6.217  0.1232 -0.0515  0.1046
    1W        W59771   1.305   4.655   3.088  0.1372 -0.0936 -0.1451
    1W        W59772   5.278  27.656   8.464 -0.1381  0.1162 -0.4901
    1W        W59773  19.600   7.362   6.935  0.3120 -0.1997  0.1894
    1W        W59774   5.256   0.315   2.969 -0.3128 -0.3162  0.1582
    1W        W59775  13.135  17.399   8.410 -0.0010 -0.0033  0.1343
    1W        W59776   6.906  19.375   0.804 -0.1601 -0.0062 -0.0525
    1W        W59777  15.914   1.970   7.689 -0.0634 -0.0840 -0.1715
    1W        W59778  10.749   8.454   8.734 -0.0908 -0.0083 -0.1346
    1W        W59779  18.981   3.759   8.521 -0.1068 -0.0336 -0.1543
    1W        W59780   1.609   1.937   8.093 -0.2230 -0.0227  0.1909
    1W        W59781  11.990   5.675   8.347  0.0354 -0.3512  0.1370
    1W        W59782  24.127  13.940   7.539  0.0649 -0.2099 -0.0120
    1W        W59783  21.305  16.961   8.744  0.1773 -0.3520 -0.1983
    1W        W59784  16.046  14.541   1.305  0.0045 -0.0435  0.1011
    1W        W59785  23.366   4.574   1.932  0.0480  0.1659  0.3106
    1W        W59786  16.180  13.219   3.649 -0.1862 -0.6112  0.0276
    1W        W59787   9.989  25.153   2.116  0.1260 -0.2232  0.1147
    1W        W59788  17.305  15.013   1.984  0.3005 -0.2552  0.2820
    1W        W59789  11.771  11.637   1.753  0.0680  0.2281 -0.0531
    1W        W59790   9.107   0.844   2.006 -0.1006 -0.3374 -0.0234
    1W        W59791  19.192  12.438   9.099  0.1581 -0.2042  0.1154
    1W        W59792   6.912  26.091   7.367 -0.2051 -0.1592 -0.1512
    1W        W59793  18.371  10.806   2.173  0.2214 -0.1050 -0.0965
    1W        W59794  17.949  13.123   8.385  0.0145  0.2601 -0.0593
    1W        W59795  25.015  28.406   7.554  0.3017  0.1301 -0.4095
    1W        W59796  18.037  27.392   2.309  0.1284  0.0253 -0.1481
    1W        W59797  11.781   8.152   6.949  0.0924  0.1488 -0.1686
    1W        W59798   0.565  22.193   8.896  0.0010  0.1103  0.0559
    1W        W59799   6.712  11.269   0.230  0.1975  0.1608 -0.2167
    1W        W59800   8.456  12.160   6.893  0.2930 -0.4668  0.5791
    1W        W59801   4.774   7.653   2.467  0.0590  0.0098 -0.1371
    1W        W59802  18.034  11.313   1.551 -0.0805 -0.0412  0.0609
    1W        W59803  12.038   3.057   1.006  0.3892  0.5027 -0.6529
    1W        W59804  18.369   4.482   7.029 -0.0484 -0.0590  0.0609
    1W        W59805  21.591  21.178   2.394  0.0188  0.4181 -0.1956
    1W        W59806   9.005  10.275   1.133 -0.0712 -0.0420 -0.2532
    1W        W59807  28.688   9.784   2.533  0.0206 -0.1349  0.0470
    1W        W59808  25.505  19.324   7.591 -0.0761  0.1631 -0.0267
    1W        W59809  18.719   8.337   1.707 -0.1644 -0.0207  0.2224
    1W        W59810  21.776  18.425   6.401  0.1570  0.0192 -0.0121
    1W        W59811  23.278  11.700   8.767 -0.0565 -0.0374  0.2222
    1W        W59812  17.647  13.375   8.885 -0.0071  0.2168 -0.1581
    1W        W59813  29.704   4.363   2.720  0.3880  0.0715  0.2026
    1W        W59814  18.614   4.624   0.979  0.0220 -0.0350 -0.1097
    1W        W59815  28.136  18.730   5.818  0.0093 -0.0264  0.2583
    1W        W59816  13.835  29.795   0.706  0.0154  0.3508 -0.2348
    1W        W59817  29.438   6.437   7.307  0.3503 -0.1571 -0.0382
    1W        W59818  17.855   7.599   1.202  0.3277 -0.0571  0.0885
    1W        W59819   6.732  15.341   8.214  0.1383 -0.2313 -0.0434
    1W        W59820  20.344   6.896   7.321 -0.0653  0.1729  0.0992
    1W        W59821  22.963  18.093   6.803 -0.0320  0.0911  0.0832
    1W        W59822   5.054   3.798   0.523 -0.0629 -0.0955 -0.2256
    1W        W59823  25.818   1.896   8.512  0.1338  0.0277 -0.0054
    1W        W59824  15.868  14.937   1.653 -0.2637 -0.1032 -0.3227
    1W        W59825   7.884   4.440   0.982 -0.2753  0.2502  0.3172
    1W        W59826  23.060   2.714   7.982 -0.4481  0.2281  0.2203
    1W        W59827   0.917  20.811   7.863 -0.2404 -0.1545  0.0000
    1W        W59828  14.736  12.522   3.448  0.2285  0.2492 -0.0800
    1W        W59829  13.502   0.083   6.955  0.1173  0.2127  0.1182
    1W        W59830   6.077  28.454   0.772 -0.0833 -0.1483 -0.3806
    1W        W59831   4.400  16.572   8.899 -0.1831 -0.3852 -0.0406
    1W        W59832   1.402  21.475   0.716 -0.1206 -0.0947 -0.1545
    1W        W59833   9.892  28.681   8.402  0.0742  0.1769 -0.0494
    1W        W59834   9.111  30.291   0.873 -0.0737 -0.0076 -0.2670
    1W        W59835  10.083  18.433   7.430  0.0639 -0.4778 -0.1633
    1W        W59836  12.689   3.737   6.398 -0.1257 -0.0844 -0.1555
    1W        W59837  13.663  15.808   0.476  0.0381  0.1007 -0.2947
    1W        W59838  10.969  13.016   2.150 -0.0602 -0.0527 -0.0018
    1W        W59839  15.898  23.253   1.091  0.7143 -0.0167  0.1690
    1W        W59840  22.334  11.782   6.360 -0.0539  0.3388  0.4005
    1W        W59841  13.151  23.914   9.234  0.0157  0.3212 -0.4267
    1W        W59842  28.030   8.073   8.163  0.0922 -0.0415 -0.0953
    1W        W59843  22.711  21.080   1.793  0.2482 -0.2405  0.3352
    1W        W59844   1.869  17.961   0.523 -0.2117 -0.0513  0.1543
    1W        W59845  22.078  28.355   3.603 -0.1357 -0.2557 -0.1044
    1W        W59846  23.684   9.078   6.739  0.0616 -0.1711  0.0510
    1W        W59847  13.729   7.351   7.180  0.1425 -0.3806  0.0771
    1W        W59848  18.798  29.141   7.756  0.1125 -0.1429  0.1830
    1W        W59849   5.252   1.943   1.228  0.0788  0.1088 -0.1074
    1W        W59850   6.982   1.304   2.205  0.0069 -0.0224 -0.0805
    1W        W59851   0.225   6.690   0.892 -0.0421  0.0789  0.1214
    1W        W59852  19.050  13.781   7.444  0.1313  0.0790  0.0272
    1W        W59853   1.858   6.796   7.078 -0.0937  0.0369  0.3347
    1W        W59854  14.793  11.135   8.043  0.3094  0.0026 -0.0315
    1W        W59855   3.926  29.641   2.679 -0.3982 -0.0276  0.1428
    1W        W59856  20.771  22.092   8.752 -0.3064  0.1109  0.0631
    1W        W59857  14.461   6.652   8.339 -0.2648  0.3327 -0.0850
    1W        W59858   5.214   0.364   1.177 -0.1417 -0.1980 -0.0737
    1W        W59859   2.264  17.485   6.927 -0.0550  0.3586 -0.2771
    1W        W59860  29.279  26.325   2.422 -0.2876  0.0183 -0.5019
    1W        W59861  24.844   0.704   8.440 -0.2263 -0.2744  0.0037
    1W        W59862   8.189  24.522   8.732 -0.0175 -0.2217 -0.0774
    1W        W59863   2.983  25.532   2.494 -0.0331 -0.1670 -0.1806
    1W        W59864  15.887   9.159   1.454  0.2978  0.0000  0.1148
    1W        W59865  14.866  27.084   0.808 -0.1197  0.2790 -0.2422
    1W        W59866   2.878  15.155   9.132 -0.0050 -0.1955 -0.0947
    1W        W59867  16.840  23.994   0.616 -0.0240 -0.1725  0.0047
    1W        W59868  29.832  26.010   2.819 -0.1594 -0.1405 -0.4125
    1W        W59869  14.542  29.866   1.269 -0.2560  0.0084  0.4321
    1W        W59870   8.614  30.045   0.503 -0.2346 -0.0518  0.3939
    1W        W59871  15.148  29.694   6.994 -0.4627 -0.0797 -0.2194
    1W        W59872   4.844   0.234   2.552 -0.1393 -0.0151 -0.3671
    1W        W59873   4.418  19.778   1.819  0.0010 -0.0896 -0.2882
    1W        W59874  19.008   3.693   0.883  0.1313 -0.0947 -0.3788
    1W        W59875  13.099   8.445   7.793 -0.1603 -0.2538  0.1405
    1W        W59876  24.389   3.124   1.410  0.0672 -0.0034  0.1642
    1W        W59877  26.217  16.972   0.072  0.1270 -0.2746 -0.0462
    1W        W59878   4.959  22.438   7.621 -0.1371 -0.0536  0.1593
    1W        W59879  27.091  30.092   7.305 -0.1707 -0.1876  0.2977
    1W        W59880  15.930  28.448   1.304 -0.2234  0.0576 -0.0477
    1W        W59881   4.139  19.301   8.072 -0.2443 -0.0594 -0.1128
    1W        W59882  13.088  21.624   8.019  0.0075 -0.1954  0.2097
    1W        W59883  20.804   5.315   6.908  0.0319 -0.1122  0.2207
    1W        W59884   0.896  11.406   1.230 -0.1760  0.1258 -0.0489
    1W        W59885   8.488  21.892   9.073 -0.0982 -0.1457  0.0256
    1W        W59886  25.591  11.522   0.253 -0.2487 -0.0452  0.3198
    1W        W59887   7.004  24.405   0.438 -0.0005  0.3456  0.2518
    1W        W59888  14.086  12.581   2.776 -0.0226 -0.3439  0.0055
    1W        W59889   2.606  11.143   0.424  0.0879 -0.0859 -0.1939
    1W        W59890  27.101   7.539   6.390 -0.3274 -0.0499 -0.1600
    1W        W59891  21.440   2.962   8.917  0.1526 -0.0660  0.0926
    1W        W59892   1.827   6.769   0.275 -0.2219  0.0650 -0.0666
    1W        W59893  13.274  10.164   7.782 -0.2833  0.1386  0.3089
    1W        W59894   3.573  12.565   0.347  0.0646 -0.2968  0.0224
    1W        W59895  14.792   2.715   0.330  0.0090 -0.1332 -0.1964
    1W        W59896   0.180   2.494   0.038  0.0724 -0.0642  0.0539
    1W        W59897   4.776   5.361   8.933  0.0794  0.0075  0.6181
    1W        W59898  21.548  23.179   1.523 -0.1558 -0.0176 -0.2248
    1W        W59899  29.600   0.835   2.698 -0.1892 -0.0579 -0.0428
    1W        W59900  25.936  18.179   6.622  0.0419 -0.0017 -0.0556
    1W        W59901  13.819  10.273   6.696 -0.1180 -0.0340 -0.1113
    1W        W59902  25.085   4.774   1.693  0.1599  0.1136  0.2760
    1W        W59903   4.072  11.700   6.852  0.2984 -0.1776  0.0155
    1W        W59904   2.898  23.396   0.166  0.0373 -0.0902  0.0798
    1W        W59905   8.030   4.627   6.668  0.0083 -0.0815 -0.1361
    1W        W59906   7.806  24.304   1.604  0.0953  0.2634  0.1556
    1W        W59907  21.140   2.695   2.008 -0.0944 -0.0407  0.3742
    1W        W59908  22.977   7.384   7.140 -0.0240  0.0191  0.0423
    1W        W59909  24.596  11.077   0.995  0.0481  0.0967 -0.2612
    1W        W59910  25.757  17.820   6.361  0.3741 -0.1833 -0.1183
    1W        W59911   7.584  21.590   8.618 -0.1432  0.0465  0.1429
    1W        W59912  13.474  27.419   2.251 -0.0983 -0.0539  0.2799
    1W        W59913  19.915   6.571   6.738  0.2885 -0.0323 -0.0743
    1W        W59914  12.918  15.056   1.595 -0.2191  0.0098 -0.2152
    1W        W59915  17.865  25.270   9.210  0.3754 -0.0751  0.2655
    1W        W59916  22.939   5.958   0.357  0.1369  0.4661 -0.0641
    1W        W59917   7.125  30.340   0.608 -0.3472  0.2435  0.1128
    1W        W59918  17.871  16.443   2.091  0.1465  0.2210 -0.2034
    1W        W59919  14.632  16.407   6.897  0.2555  0.2047  0.0530
    1W        W59920   9.430   2.127   7.276 -0.0719 -0.0697  0.1933
    1W        W59921   8.245  10.570   2.861 -0.2020  0.2003 -0.0407
    1W        W59922  18.222   0.600   9.269  0.2589  0.0604  0.0877
    1W        W59923   5.015  20.755   7.379  0.1984 -0.1750  0.1620
    1W        W59924  13.204  25.338   7.199  0.0906  0.2392  0.2747
    1W        W59925  25.294   8.304   8.463  0.2331  0.0216 -0.0283
    1W        W59926   2.816   0.891   1.342 -0.0307 -0.1336 -0.4124
    1W        W59927   3.418  12.947   7.057  0.0391 -0.2745 -0.1885
    1W        W59928   7.464  23.293   2.090  0.1810  0.2335 -0.2117
    1W        W59929   5.697   2.555   8.119  0.3651 -0.0541 -0.2772
    1W        W59930   1.106   3.430   7.325  0.0564  0.1632 -0.0880
    1W        W59931   3.319  13.800   8.451 -0.1914  0.0343  0.1796
    1W        W59932   2.966  16.003   8.679  0.0861  0.0080 -0.4141
    1W        W59933   6.483   3.733   9.258 -0.1474 -0.0807 -0.0759
    1W        W59934   0.761  26.681   6.933  0.1019  0.0073 -0.2232
    1W        W59935  20.532   9.796   6.943  0.0766 -0.0474 -0.0836
    1W        W59936  20.119   7.149   2.913  0.1780  0.3461 -0.1172
    1W        W59937  19.037  23.216   2.160  0.2743  0.0128 -0.1037
    1W        W59938  16.214  13.414   0.461 -0.4119 -0.1904  0.2253
    1W        W59939  24.419  30.067   1.796 -0.0106 -0.1038  0.0284
    1W        W59940  15.865  18.797   8.006 -0.1122 -0.1539  0.0711
    1W        W59941  23.303   6.369   2.888 -0.0212 -0.0128 -0.1211
    1W        W59942   9.410  27.323   0.803 -0.2724  0.0025  0.0519
    1W        W59943  18.708  29.666   2.899 -0.4565  0.4980  0.1599
    1W        W59944  22.219  19.222   7.633  0.3445  0.2398 -0.0236
    1W        W59945   2.699  11.180   0.961  0.0758 -0.2572  0.0982
    1W        W59946  16.271  21.467   0.256 -0.1115 -0.3311  0.0094
    1W        W59947  28.681  10.545   1.573  0.0118 -0.2386  0.1618
    1W        W59948  28.739  20.317   8.694  0.0386 -0.2390  0.1788
    1W        W59949  18.777  11.801   2.292  0.3088  0.4071 -0.2720
    1W        W59950   0.165   1.599   7.290 -0.2518  0.2688 -0.3285
    1W        W59951   0.351   9.870   2.369 -0.0480 -0.1440 -0.1710
    1W        W59952   6.224  13.217   2.429 -0.0694  0.2932  0.0985
    1W        W59953  14.304  27.418   8.493  0.0791 -0.1201  0.2773
    1W        W59954  15.123   3.781   8.475  0.4257 -0.0105  0.0504
    1W        W59955  22.347   8.294   1.903  0.0898 -0.2193 -0.1680
    1W        W59956  10.446  28.150   8.776  0.1065  0.1061 -0.4521
    1W        W59957   8.714  28.554   2.624 -0.1542  0.0321  0.0612
    1W        W59958   6.180   6.705   7.904  0.0907  0.0143 -0.0782
    1W        W59959  23.192  17.377   6.767 -0.1527 -0.0231 -0.0389
    1W        W59960  22.213   5.675   1.393  0.0533 -0.0966 -0.2493
    1W        W59961  19.047  19.405   1.975  0.2012 -0.2071 -0.1820
    1W        W59962   9.755  10.188   8.102  0.0703 -0.3209 -0.1051
    1W        W59963   3.928  26.224   0.478 -0.0270  0.0406  0.2286
    1W        W59964   8.670   0.178   7.983 -0.0569  0.1791 -0.0051
    1W        W59965   2.546   3.812   8.329 -0.1934  0.1936  0.1442
    1W        W59966  12.510   9.314   9.178  0.1034 -0.0044 -0.0846
    1W        W59967  28.919  28.050   0.892  0.0237 -0.1026  0.0466
    1W        W59968  18.607   6.930   8.436  0.1717 -0.2230 -0.0055
    1W        W59969   9.986   8.999   8.518  0.0448 -0.1447  0.1237
    1W        W59970  25.133   4.098   3.877 -0.0088 -0.0012  0.1590
    1W        W59971   5.634  17.383   1.260 -0.3327 -0.2374 -0.2544
    1W        W59972  21.699  23.188   7.767 -0.0799  0.0579  0.1013
    1W        W59973  12.475  17.873   2.237  0.0621 -0.0270 -0.1568
    1W        W59974  28.600  17.433   1.106  0.1635  0.3926 -0.0845
    1W        W59975   1.127  27.401   1.585 -0.0742  0.1937 -0.5676
    1W        W59976  27.104  10.938   8.466 -0.2396  0.0014  0.0910
    1W        W59977   4.582   0.735   1.579  0.0899 -0.0836  0.0899
    1W        W59978  10.383  26.899   8.501 -0.2221  0.0772  0.0906
    1W        W59979  23.097  19.433   7.714 -0.0437 -0.1051 -0.3290
    1W        W59980  25.364  12.136   7.594 -0.1334 -0.0799 -0.0627
    1W        W59981   4.753   0.523   8.512  0.2910 -0.1758  0.2954
    1W        W59982  20.135  25.540   2.597  0.0217 -0.0534  0.2284
    1W        W59983   4.202  25.774   1.266 -0.0874  0.1666  0.2454
    1W        W59984   3.710  29.107   0.618 -0.0601  0.3485 -0.1195
    1W        W59985  20.628   6.288   7.904 -0.2118  0.0030 -0.0450
    1W        W59986  18.072  28.808   8.304 -0.0026  0.1960 -0.0288
    1W        W59987   4.274   3.656   2.028  0.0095  0.1940  0.0593
    1W        W59988  12.999  21.117   7.888  0.1325  0.0582  0.2202
    1W        W59989  19.652   1.810   1.099 -0.3702 -0.0392  0.1717
    1W        W59990  29.547   4.251   1.840  0.0852  0.1630  0.0032
    1W        W59991   0.112   3.220   6.710  0.0663 -0.0954 -0.1437
    1W        W59992  21.455  27.007   0.740 -0.0686 -0.3566  0.1072
    1W        W59993   6.086   8.783   7.734 -0.3654  0.1054 -0.1231
    1W        W59994   8.475   9.330   0.460  0.0906  0.2879  0.2829
    1W        W59995  27.295  29.903   7.709 -0.1271  0.3473 -0.3159
    1W        W59996  26.225  10.894   1.710  0.0042 -0.0661 -0.1278
    1W        W59997  21.014   3.916   1.686  0.3449 -0.2121  0.0486
    1W        W59998  25.927  15.738   8.299 -0.2380 -0.0233  0.2572
    1W        W59999   5.880  21.134   7.381  0.0032 -0.1888 -0.0551
    1W        W60000   8.783  17.318   0.843 -0.2236 -0.2671  0.0561
    1W        W60001  27.631   5.396   8.907 -0.2909  0.0134  0.7023
    1W        W60002   7.330  27.337   2.435  0.0298  0.0869 -0.1342
    1W        W60003  16.041  28.452   7.695  0.0404 -0.2066 -0.0250
    1W        W60004  10.368   1.354   7.003  0.0785 -0.0125  0.0444
    1W        W60005   6.450   5.693   8.015 -0.0692 -0.3622  0.0675
    1W        W60006   0.359  23.620   8.580 -0.0189  0.1127 -0.2313
    1W        W60007   3.166  16.957   8.790 -0.0980 -0.0605  0.1154
    1W        W60008  28.712  25.761   1.263 -0.0256 -0.0362 -0.2344
    1W        W60009  17.900  19.876   8.833  0.0317 -0.0518 -0.1735
    1W        W60010   1.359  19.039   8.318 -0.0620 -0.0104  0.0220
    1W        W60011   0.367  12.093   1.297  0.0079 -0.0310  0.1095
    1W        W60012   5.221  28.781   7.417 -0.3617  0.2305  0.0056
    1W        W60013  24.296  14.118   6.318 -0.1348  0.0533 -0.0093
    1W        W60014  26.337   1.667   3.069 -0.0722  0.0623  0.0103
    1W        W60015  17.631  17.345   5.767  0.0606 -0.0790 -0.1144
    1W        W60016  11.161   8.204   8.493 -0.2685  0.1610 -0.1665
    1W        W60017   1.743  23.436   1.781 -0.1852  0.0827 -0.0683
    1W        W60018  11.840  27.247   8.292  0.3824 -0.0472 -0.1378
    1W        W60019  20.575   1.895   2.923 -0.2969 -0.1374 -0.1329
    1W        W60020   2.381   6.192   6.772  0.1849 -0.0969  0.0191
    1W        W60021  14.464  15.521   6.599  0.1743 -0.0681  0.0993
    1W        W60022  29.088  20.113   7.275 -0.3081  0.0304  0.2668
    1W        W60023   6.800  10.446   8.179  0.0280  0.0554 -0.0047
    1W        W60024  10.044  17.130   1.502  0.0267  0.0139 -0.0636
    1W        W60025   8.667  15.329   2.217 -0.0401  0.4861  0.0147
    1W        W60026  21.870  23.616   7.445  0.0367  0.1441  0.2845
    1W        W60027   4.133  25.151   1.650 -0.1132  0.0786 -0.2369
    1W        W60028   1.914  16.686   8.282  0.2848  0.1450 -0.2350
    1W        W60029   1.040  19.406   6.482 -0.1353  0.2239 -0.0935
    1W        W60030   3.018  26.345   7.531  0.0461  0.0219  0.0965
    1W        W60031  19.158  28.461   1.332  0.0956  0.2320  0.1198
    1W        W60032  11.387   9.409   3.246 -0.3054 -0.0017  0.3438
    1W        W60033  27.580   9.100   8.846  0.4226  0.2082  0.1469
    1W        W60034   9.822   8.027   7.204  0.0818  0.1776 -0.0786
    1W        W60035  17.140   4.506   2.110  0.0685 -0.0079  0.0565
    1W        W60036   2.369  19.304   6.518  0.1100 -0.0315  0.0598
    1W        W60037  17.995  20.806   8.256 -0.0709 -0.0303 -0.0716
    1W        W60038  21.905  11.134   1.235  0.0194 -0.0465  0.2469
    1W        W60039   8.269   4.464   2.227  0.0974 -0.2804 -0.2517
    1W        W60040  11.342  10.846   0.741  0.2855  0.0372  0.2715
    1W        W60041  25.385  27.347   8.551  0.0458 -0.1273  0.1413
    1W        W60042  17.935   2.347   1.470  0.0645  0.2240 -0.0056
    1W        W60043  22.927  29.146   6.706  0.0991  0.2870 -0.0739
    1W        W60044   7.154  23.150   1.680  0.0696  0.0958  0.2514
    1W        W60045  24.230  19.076   7.624  0.1753  0.2379 -0.0434
    1W        W60046  27.167  17.831   6.628  0.0802  0.1291  0.0738
    1W        W60047  29.663  20.835   8.033  0.0547  0.1436  0.0189
    1W        W60048  14.882  18.586   0.121 -0.0917  0.2024  0.1220
    1W        W60049  19.489   6.389   8.970 -0.0298 -0.1718  0.3690
    1W        W60050  18.878   5.614   8.957  0.2294  0.2341 -0.0190
    1W        W60051  22.199   7.596   6.523  0.0198 -0.0448  0.1282
    1W        W60052  18.779   7.666   8.764 -0.1240 -0.1558 -0.1818
    1W        W60053  27.500   2.822   1.202 -0.1007 -0.1072  0.0711
    1W        W60054  28.163  16.598   7.381  0.0558 -0.0233  0.0831
    1W        W60055   1.521   3.017   0.000 -0.0705 -0.1373 -0.1757
    1W        W60056   2.293  13.914   7.124  0.1620 -0.2345  0.0492
    1W        W60057  17.796  18.599   7.136  0.0525 -0.2438  0.2089
    1W        W60058  24.576  11.490   2.305 -0.1478  0.2877 -0.1263
    1W        W60059   2.416  10.980   1.811  0.0456  0.0209  0.0793
    1W        W60060  28.605  14.896   7.370  0.1333 -0.0115 -0.0404
    1W        W60061   2.770   4.218   7.463  0.1235 -0.4884  0.0044
    1W        W60062  27.936  19.509   1.024  0.0674 -0.1025  0.0985
    1W        W60063  20.670  12.825   2.295  0.0870  0.0515  0.1258
    1W        W60064  27.504  15.363   1.502  0.0125 -0.1573 -0.1183
    1W        W60065   6.232  15.798   7.750  0.3184 -0.1247  0.2761
    1W        W60066   7.767   3.449   7.316 -0.1324  0.1791  0.0342
    1W        W60067  22.003  26.329   2.755 -0.4841 -0.0246  0.0575
    1W        W60068  23.671  26.741   8.673  0.1324  0.1507 -0.0292
    1W        W60069  21.520  11.811   5.850 -0.1609  0.1636 -0.1428
    1W        W60070  27.896   2.258   0.171 -0.2645  0.0752  0.0909
    1W        W60071  14.665   0.217   8.149 -0.0068 -0.2881 -0.1235
    1W        W60072  23.661  20.397   0.633  0.2488  0.2103  0.0759
    1W        W60073  28.914   1.678   0.813  0.0439 -0.2196 -0.2082
    1W        W60074   8.831  25.545   0.922  0.2133  0.0957  0.3665
    1W        W60075  26.395   4.938   1.147 -0.0170 -0.2969 -0.0555
    1W        W60076   6.999  16.237   9.111  0.2015 -0.1334  0.1178
    1W        W60077   6.775  13.558   6.516  0.0133 -0.0484 -0.0141
    1W        W60078  13.951   8.010   8.917  0.2910  0.1873  0.1483
    1W        W60079   0.350   2.854   3.017  0.1211  0.0445  0.1228
    1W        W60080   7.641  21.078   8.631  0.1309 -0.3450  0.1134
    1W        W60081   0.795   1.957   1.936  0.0016  0.3111  0.1900
    1W        W60082  21.196   7.541   9.086  0.0920 -0.1301 -0.2519
    1W        W60083   8.573  28.694   2.120 -0.1801 -0.0206 -0.0540
    1W        W60084  24.667   9.503   5.768 -0.0045  0.3210 -0.5004
    1W        W60085   8.748  12.744   9.029  0.0117 -0.1147 -0.2337
    1W        W60086  10.839   4.256   7.970  0.0140  0.1210  0.0900
    1W        W60087   0.642   5.692   1.606  0.1677 -0.1374  0.2540
    1W        W60088   0.134  20.349   7.401 -0.0331 -0.3357 -0.1511
    1W        W60089  14.426  17.334   0.922  0.1810 -0.1944  0.1129
    1W        W60090   8.802  25.546   0.035  0.1253 -0.0585  0.5766
    1W        W60091   6.010  28.095   2.711  0.1781 -0.3435  0.2013
    1W        W60092   8.437   5.911   0.961 -0.2359 -0.0733  0.2329
    1W        W60093  19.489  20.464   1.240  0.0369 -0.0193  0.0171
    1W        W60094  28.163  17.562   1.361  0.1683  0.1274 -0.0728
    1W        W60095   3.410  23.483   7.272  0.2556  0.1041  0.1606
    1W        W60096  19.635   1.205   2.863 -0.0041 -0.1618 -0.0171
    1W        W60097  24.556   7.973   9.040 -0.2976 -0.0412 -0.3957
    1W        W60098  11.660  14.423   2.502 -0.0012  0.3736 -0.1176
    1W        W60099  29.924  30.163   8.632  0.2102  0.1269  0.1858
    1W        W60100  11.245  17.504   8.328 -0.2406  0.2243  0.1914
    1W        W60101   5.430   5.254   9.171 -0.1425  0.3305  0.3204
    1W        W60102  22.301   5.383   7.796 -0.0855  0.1692 -0.2072
    1W        W60103   1.724  20.216   6.693  0.2749  0.0689  0.0480
    1W        W60104   7.571  13.955   1.834  0.1616 -0.0903 -0.2647
    1W        W60105  18.662  12.935   7.389  0.2206  0.0394  0.0229
    1W        W60106  24.982  13.447   8.873 -0.0622  0.1430 -0.2218
    1W        W60107   7.573  24.068   8.071 -0.1361  0.1822 -0.1776
    1W        W60108  19.544  19.757   8.034  0.0899  0.1242  0.3322
    1W        W60109  10.401  16.521   1.377  0.3209  0.0601  0.0660
    1W        W60110  14.438   0.579   0.901  0.1855  0.2664 -0.0977
    1W        W60111  24.278  13.118   6.929  0.3127  0.0991 -0.2862
    1W        W60112  12.739  24.635   7.502 -0.3470 -0.0146  0.0929
    1W        W60113   3.142   3.841   2.112 -0.1665  0.0189  0.2461
    1W        W60114  26.593   5.980   0.140  0.2377  0.0860  0.1282
    1W        W60115  14.108   6.525   6.515 -0.0459 -0.0521 -0.1794
    1W        W60116   5.539   8.749   7.639 -0.1533  0.2450  0.2035
    1W        W60117  29.930  26.702   8.173  0.0543 -0.0784 -0.1740
    1W        W60118  19.224   9.661   1.034 -0.0138  0.3723 -0.0744
    1W        W60119  20.701   1.015   2.448 -0.1992 -0.2182  0.3619
    1W        W60120  17.094   6.425   1.413  0.1275 -0.0690 -0.2469
    1W        W60121  20.209   0.504   1.270  0.2484 -0.0028  0.2992
    1W        W60122  14.320  29.376   6.984  0.0560 -0.0023  0.1872
    1W        W60123  26.602  30.311   0.499 -0.0472 -0.0406  0.0426
    1W        W60124  10.522  15.525   8.579  0.0497  0.0471 -0.0175
    1W        W60125  13.261  25.509   2.351 -0.1854  0.1408  0.1630
    1W        W60126   2.447   7.206   0.442 -0.3285 -0.1685  0.1026
    1W        W60127   3.714  15.452   1.529 -0.1095  0.0836 -0.3028
    1W        W60128   9.931  27.668   8.351 -0.0617 -0.0009 -0.0819
    1W        W60129  27.387  16.400   8.140 -0.0896  0.0140 -0.0402
    1W        W60130  16.202   7.572   2.397  0.1464  0.1278  0.0651
    1W        W60131   9.652  30.241   6.367 -0.0474  0.1061 -0.0060
    1W        W60132   1.017   3.598   3.146  0.0386  0.0140 -0.0549
    1W        W60133  13.429  10.433   0.539 -0.1702 -0.0538  0.0218
    1W        W60134  18.066   9.479   2.812  0.1643 -0.2267 -0.1021
    1W        W60135  19.446  17.856   2.305 -0.0937 -0.0110 -0.0834
    1W        W60136  13.305  16.494   0.026  0.1232  0.1411 -0.0168
    1W        W60137  16.429  30.045   0.155 -0.0167  0.1011 -0.0852
    1W        W60138  10.795  14.282   1.930 -0.2373  0.2546 -0.0296
    1W        W60139   6.651  25.830   3.211  0.2780  0.2102  0.1222
    1W        W60140  20.521   5.228   2.218  0.2304 -0.2753 -0.2838
    1W        W60141  24.154   0.721   1.629 -0.0810 -0.2045 -0.2449
    1W        W60142  27.736   0.597   1.331 -0.2276 -0.0708 -0.1029
    1W        W60143   2.686   5.171   2.356  0.3301  0.2757 -0.0448
    1W        W60144   0.939  19.972   0.014  0.2345 -0.2014 -0.3578
    1W        W60145  11.156  30.123   1.652  0.0886 -0.1663 -0.2798
    1W        W60146  29.258  15.357   0.762 -0.0622 -0.2651 -0.0719
    1W        W60147  13.211  25.397   8.783  0.2233 -0.0907 -0.2338
    1W        W60148  19.601  21.093   1.683  0.3863 -0.1271 -0.3131
    1W        W60149  25.967  15.150   1.872  0.2254  0.1200 -0.0289
    1W        W60150  16.716  14.509   1.933  0.0369  0.2151 -0.0519
    1W        W60151  10.753  26.579   6.908  0.1652 -0.3148 -0.1968
    1W        W60152  19.862   0.842   0.995 -0.1305 -0.1047 -0.0291
    1W        W60153  22.110   2.644   0.105  0.1517 -0.1412  0.1106
    1W        W60154  16.967   1.382   0.538  0.4160  0.2285 -0.0063
    1W        W60155  28.102  23.942   0.613  0.2229 -0.1583 -0.1003
    1W        W60156  29.016  18.685   0.352  0.2080 -0.1536 -0.0751
    1W        W60157  13.565   7.924   6.671 -0.2324 -0.0957  0.1668
    1W        W60158   5.419   8.170   7.315 -0.5326 -0.0082 -0.0874
    1W        W60159  21.744  26.246   0.391 -0.0207 -0.1862  0.1941
    1W        W60160   0.995   9.908   2.946 -0.0389 -0.2399  0.2223
    1W        W60161  12.902  26.490   8.561 -0.2519 -0.2359  0.0771
    1W        W60162  11.616  17.562   0.285  0.1825 -0.0178  0.0491
    1W        W60163  19.408  28.492   9.144 -0.1773 -0.0322  0.1337
    1W        W60164  11.580  16.704   2.009  0.2388  0.1588  0.0084
    1W        W60165  13.295  17.332   3.063  0.1594  0.3038 -0.1375
    1W        W60166   5.598   0.725   0.246 -0.0391  0.3751 -0.0951
    1W        W60167  14.657  10.033   8.832  0.5677  0.0312 -0.1331
    1W        W60168  13.823  12.297   2.325  0.0694  0.0865 -0.1169
    1W        W60169   1.370   4.542   0.611 -0.0412 -0.0856  0.2964
    1W        W60170  13.173  27.073   0.509  0.1945 -0.0147 -0.0425
    1W        W60171   6.433  24.112   8.132 -0.1418 -0.1115  0.2309
    1W        W60172  28.637  17.643   7.282  0.3869 -0.1108 -0.2310
    1W        W60173   4.054  12.603   8.399 -0.0778  0.5402  0.1151
    1W        W60174  11.016  11.209   7.915  0.0683 -0.1280  0.0638
    1W        W60175  18.995  25.635   8.078  0.0590  0.3539  0.0553
    1W        W60176   7.939  23.237   8.101  0.1444 -0.2315 -0.0761
    1W        W60177   0.788  22.159   7.606 -0.2362 -0.0903 -0.1456
    1W        W60178   0.737  12.352   8.731  0.2695 -0.1495  0.3106
    1W        W60179  22.153   6.347   5.921  0.2708  0.0895 -0.2882
    1W        W60180   5.556   8.466   1.620  0.1969  0.0825 -0.1132
    1W        W60181  17.313  29.935   6.719  0.1580 -0.1499  0.0174
    1W        W60182   0.105   0.524   1.389 -0.2505  0.3186 -0.1856
    1W        W60183   4.245  12.312   2.098  0.4009  0.1891  0.3552
    1W        W60184   9.764  17.110   2.287 -0.1986  0.1840 -0.1281
    1W        W60185  24.062   7.996   0.462  0.1261 -0.0168  0.1401
    1W        W60186  17.837  20.342   6.656  0.1846 -0.0517  0.1184
    1W        W60187   3.424  27.176   2.441  0.0776  0.0840  0.0440
    1W        W60188   5.786  21.489   8.895  0.3561 -0.1859 -0.3358
    1W        W60189  27.344   7.585   7.378  0.0591 -0.0263  0.0336
    1W        W60190  16.462   4.269   6.290 -0.3316  0.1416  0.2788
    1W        W60191  26.512  28.747   7.780  0.1409  0.3801 -0.1107
    1W        W60192  15.473  14.872   8.923  0.0956 -0.1960  0.0766
    1W        W60193  21.065   6.191   8.192 -0.1278  0.2993  0.1854
    1W        W60194  18.376   2.229   7.278 -0.0084  0.0804  0.4679
    1W        W60195  16.266   4.987   9.043 -0.1239 -0.4355  0.0388
    1W        W60196   4.236   1.670   2.236  0.1517 -0.1951 -0.1102
    1W        W60197  14.490   4.019   3.004 -0.0433  0.0033 -0.0123
    1W        W60198  13.788  11.206   3.054  0.1149  0.1549  0.0566
    1W        W60199   6.702  21.952   1.321 -0.1336 -0.3456 -0.0561
    1W        W60200  18.918   8.813   8.083  0.1814 -0.3671 -0.1003
    1W        W60201  11.192   4.538   2.612 -0.0827 -0.0894 -0.2175
    1W        W60202  29.284  27.419   7.562  0.1577 -0.1549 -0.1119
    1W        W60203   6.122  17.531   1.206  0.4013  0.0441 -0.2797
    1W        W60204  18.869  12.852   0.660  0.2073 -0.2113 -0.2922
    1W        W60205   2.475   6.647   1.129  0.1137  0.2838  0.1638
    1W        W60206  21.673  13.244   6.029  0.1472  0.3007  0.1202
    1W        W60207  21.399   4.624   1.197 -0.2811  0.1401  0.0812
    1W        W60208  26.456  24.350   1.931 -0.0060 -0.1641 -0.1476
    1W        W60209   9.420  16.347   7.175  0.1989 -0.0776 -0.0271
    1W        W60210  14.986   9.846   1.499 -0.3074 -0.0662  0.0830
    1W        W60211  26.082   2.341   1.314 -0.0530  0.2174 -0.2430
    1W        W60212   8.600  18.769   9.015  0.0195  0.1733  0.0786
    1W        W60213  11.233  20.796   6.442 -0.2163 -0.0165  0.0573
    1W        W60214  18.972   4.324   1.922  0.1468  0.1810  0.2280
    1W        W60215  14.557   9.317   1.163  0.1133  0.1703 -0.2929
    1W        W60216  26.482   4.624   0.192 -0.1991  0.0131 -0.2011
    1W        W60217   2.602  11.486   7.878 -0.2073 -0.0125 -0.2685
    1W        W60218  10.861   9.214   7.871  0.3186 -0.0488  0.2087
    1W        W60219   2.804   4.244   8.071 -0.4657  0.0109  0.1736
    1W        W60220  29.568   5.658   1.624 -0.0700 -0.1191 -0.1091
    1W        W60221  26.209   6.300   2.278 -0.1638  0.1382  0.0541
    1W        W60222  10.713   6.518   1.781 -0.1081  0.0841 -0.0690
    1W        W60223  25.264  27.754   8.316  0.0910 -0.2414 -0.2089
    1W        W60224  24.518  15.924   1.556  0.2455 -0.0261  0.3135
    1W        W60225   5.362   1.572   0.829 -0.3559  0.0873 -0.1077
    1W        W60226  10.496   8.652   0.732  0.2323 -0.0656  0.1991
    1W        W60227  27.869   9.290   8.411  0.3077  0.1345  0.3268
    1W        W60228  18.733  18.908   6.323  0.2796  0.0853 -0.0315
    1W        W60229   8.171  27.033   9.026  0.2278 -0.1119 -0.0056
    1W        W60230  26.206   8.707   8.721  0.0406 -0.2090  0.1441
    1W        W60231   5.506  18.235   0.207  0.1157  0.0636 -0.2694
    1W        W60232  18.488   8.306   0.116 -0.1843  0.3868 -0.2666
    1W        W60233  17.166  13.507   2.887  0.1204  0.1090  0.1142
    1W        W60234   6.734   1.458   1.761  0.0336  0.1338  0.1907
    1W        W60235   2.183   8.587   7.435 -0.2013  0.1493 -0.0152
    1W        W60236   3.828  20.364   9.108  0.0310 -0.2442  0.1233
    1W        W60237   3.726  14.153   1.329  0.1097 -0.3461 -0.2138
    1W        W60238   0.078  11.160   8.497  0.0439 -0.0951 -0.1147
    1W        W60239  18.143  13.332   8.896  0.0957  0.0819 -0.1219
    1W        W60240  28.813   5.975   2.343  0.1054  0.0898  0.1478
    1W        W60241  16.292   6.959   0.376  0.1208  0.0064 -0.0501
    1W        W60242  25.717  27.462   7.628 -0.0993  0.0289 -0.2112
    1W        W60243  11.433   1.619   8.470  0.0997  0.2623 -0.3268
    1W        W60244   7.156  13.917   9.216 -0.0224 -0.0270  0.1297
    1W        W60245  10.326  20.471   1.298 -0.3064 -0.1767 -0.1466
    1W        W60246   0.580  24.954   8.162  0.2636 -0.0816 -0.0529
    1W        W60247   2.912   6.887   0.113  0.2234  0.3206  0.3417
    1W        W60248  12.050   6.985   7.593  0.0293  0.2029 -0.1764
    1W        W60249   6.562  27.414   3.045 -0.1458 -0.1737  0.2277
    1W        W60250  30.043   3.832   8.259 -0.1751 -0.0558 -0.0848
    1W        W60251   7.457  25.094   8.112  0.2127  0.1716 -0.1255
    1W        W60252  23.557  25.028   7.329  0.0127 -0.1980 -0.3776
    1W        W60253  11.109  14.075   1.580 -0.3832 -0.3991 -0.0525
    1W        W60254  15.003  15.548   3.646  0.1817 -0.1043 -0.1749
    1W        W60255  12.799  17.542   1.340 -0.0491 -0.2278  0.3052
    1W        W60256   0.874  22.712   1.298  0.0758  0.3277 -0.1131
    1W        W60257   0.105   2.309   2.681  0.3381 -0.0772 -0.0178
    1W        W60258  13.121   3.659   2.340  0.0751  0.1462 -0.0309
    1W        W60259   5.814   6.642   2.803 -0.2012 -0.2161  0.0811
    1W        W60260  23.572  26.270   2.699  0.2009 -0.1064  0.0263
    1W        W60261   5.233   8.328   7.748  0.0935 -0.0249 -0.0706
    1W        W60262  21.717  13.200   9.200  0.2372  0.0026 -0.3622
    1W        W60263   6.805   7.700   8.036  0.1216  0.0604 -0.1135
    1W        W60264  29.350   1.481   9.222  0.2491 -0.0494 -0.0667
    1W        W60265  25.271  10.831   7.926  0.0244 -0.0246  0.2364
    1W        W60266   7.079  29.016   6.988 -0.1210 -0.0844 -0.0087
    1W        W60267  12.384   7.151   1.629 -0.3608 -0.0877 -0.1771
    1W        W60268   7.799  14.440   1.713  0.2703 -0.0472 -0.1272
    1W        W60269  12.742  15.937   8.742  0.3618  0.0944  0.1438
    1W        W60270  12.805  18.689   1.797  0.0969 -0.2824 -0.2616
    1W        W60271  20.559  21.487   1.288  0.4270 -0.1313  0.1550
    1W        W60272  24.019  22.525   7.130  0.1408  0.3198  0.1756
    1W        W60273  17.960  20.612   7.075 -0.1911  0.2620  0.2031
    1W        W60274  11.661  29.212   2.387  0.2535  0.1423 -0.0269
    1W        W60275  27.087   7.687   6.872  0.1205  0.0927  0.0072
    1W        W60276  26.365  16.099   8.622  0.1661 -0.0767 -0.0353
    1W        W60277  27.057  27.006   3.274 -0.1771  0.0444  0.0102
    1W        W60278  22.388   1.630   3.651 -0.1148 -0.1966 -0.2177
    1W        W60279  13.918   9.118   2.033 -0.2481  0.0869 -0.0560
    1W        W60280  12.874  13.557   2.230 -0.2895  0.0811 -0.0537
    1W        W60281  21.566   6.080   7.655  0.0408  0.1008  0.0393
    1W        W60282  24.596  24.774   7.333 -0.0417  0.0213  0.2573
    1W        W60283  22.032   5.157   1.166  0.2170  0.1332 -0.3302
    1W        W60284  19.763   1.123   8.677 -0.1485 -0.1079  0.1066
    1W        W60285  14.269   3.593   7.920  0.0921 -0.1775  0.1042
    1W        W60286  26.830  28.211   8.471  0.0928  0.2739  0.0758
    1W        W60287  20.025  21.906   6.528 -0.0137  0.0500  0.0407
    1W        W60288  17.497  17.716   0.417  0.2488  0.1675 -0.3281
    1W        W60289  14.432  20.389   8.467  0.1095  0.0999 -0.3394
    1W        W60290  19.548   4.189   6.229  0.0864  0.1977 -0.1768
    1W        W60291  20.063   5.114   7.460 -0.2356 -0.3519  0.0258
    1W        W60292  18.374  21.366   8.810 -0.0055  0.1000  0.0238
    1W        W60293  24.161  21.506   0.781  0.3157 -0.1616 -0.0984
    1W        W60294  29.672  12.152   1.070  0.0623  0.0433  0.0424
    1W        W60295  16.079  30.288   1.593  0.0750 -0.0107 -0.0894
    1W        W60296  29.857  18.297   9.131 -0.0559  0.1683 -0.2383
    1W        W60297  29.855   5.230   6.962  0.2187  0.1563 -0.3782
    1W        W60298   5.827  23.865   1.689 -0.1175  0.1413  0.2434
    1W        W60299   9.481  28.355   8.787  0.1280 -0.1952  0.1669
    1W        W60300   9.739   7.298   1.809  0.0552 -0.2705  0.0074
    1W        W60301  17.997  24.726   0.407 -0.0203  0.1899 -0.2753
    1W        W60302   2.121   2.930   1.005  0.3227  0.0581  0.0881
    1W        W60303  13.778   6.433   0.742 -0.0587 -0.2117  0.1079
    1W        W60304   6.558  14.582   7.777 -0.2054  0.1344  0.1492
    1W        W60305   0.378   6.233   8.547  0.3544  0.2308  0.3801
    1W        W60306  10.656   4.882   2.521 -0.1408  0.0446  0.1925
    1W        W60307  21.289  11.743   6.264  0.2295  0.3448 -0.0993
    1W        W60308  16.148  19.126   5.837 -0.0602 -0.3001  0.1248
    1W        W60309   0.107  12.231   0.815  0.1477  0.1440 -0.0613
    1W        W60310   2.901  20.785   1.480 -0.0184  0.4041 -0.0985
    1W        W60311   0.313  27.015   6.838  0.2248 -0.1735 -0.3939
    1W        W60312   7.346   5.932   6.844 -0.2094 -0.4116  0.0563
    1W        W60313  17.009   0.363   6.529  0.1610 -0.2105 -0.1524
    1W        W60314  22.190   1.134   7.404  0.0697  0.2076  0.0724
    1W        W60315  13.851  24.559   6.995 -0.1226 -0.3159 -0.0463
    1W        W60316  25.029  12.703   0.827 -0.0396 -0.1831 -0.2292
    1W        W60317  18.073  14.893   1.339 -0.0099  0.0945 -0.2257
    1W        W60318  16.998  16.697   2.861  0.1956  0.0860 -0.2552
    1W        W60319   1.671  29.393   1.263  0.1352 -0.1071 -0.1536
    1W        W60320   2.303  19.926   1.464 -0.3537  0.2151  0.0179
    1W        W60321  19.108  15.508   1.527  0.1477 -0.1054 -0.0518
    1W        W60322   8.129  27.099   1.851 -0.0250 -0.0042 -0.0260
    1W        W60323  13.458  14.362   0.327 -0.1690  0.1350  0.0167
    1W        W60324  17.531  12.231   6.656  0.2593 -0.1657 -0.0511
    1W        W60325  24.271   0.516   1.134 -0.0870  0.0156  0.0818
    1W        W60326  17.126  12.652   7.297  0.2624 -0.0696 -0.0645
    1W        W60327   3.559  24.540   0.548  0.0323  0.3288  0.0228
    1W        W60328   4.808   4.160   8.400  0.1150 -0.0047 -0.2119
    1W        W60329  18.583   5.547   0.133 -0.1896 -0.2920  0.0051
    1W        W60330  17.912  28.811   2.805 -0.0332 -0.0752  0.1730
    1W        W60331  10.417   0.698   1.701  0.0931 -0.1582  0.2970
    1W        W60332  24.995  20.256   0.448  0.5018 -0.0767 -0.0738
    1W        W60333   1.196  15.890   6.575  0.0331  0.0793 -0.1102
    1W        W60334   7.327   5.883   8.730 -0.1828 -0.2863  0.0758
    1W        W60335  13.652  10.610   1.823 -0.3417 -0.0026  0.2810
    1W        W60336   6.560   1.736   8.130 -0.1721  0.5115 -0.2164
    1W        W60337  19.099  18.522   6.455 -0.1258 -0.1306  0.0791
    1W        W60338   6.583  23.678   9.266  0.0421 -0.0574 -0.0700
    1W        W60339  26.988  18.270   0.859 -0.1475 -0.1688  0.2508
    1W        W60340  29.679   2.313   9.064 -0.0704 -0.2805 -0.0262
    1W        W60341  19.872  28.906   1.269 -0.2271  0.1342  0.2578
    1W        W60342  27.932   0.000   0.058  0.2424 -0.1676 -0.0679
    1W        W60343  14.272  15.059   2.533 -0.3131  0.0480  0.0014
    1W        W60344  17.842  10.910   1.797  0.1407  0.0908 -0.0538
    1W        W60345  20.219  23.322   1.791 -0.0542  0.0751 -0.1688
    1W        W60346  17.518  27.992   1.805 -0.3797  0.2355  0.2189
    1W        W60347  22.512  20.018   6.420  0.1803 -0.0680 -0.0948
    1W        W60348   0.676   8.348   1.795 -0.0787 -0.1595 -0.0718
    1W        W60349  12.621  27.064   7.816 -0.0314  0.5748 -0.1217
    1W        W60350  19.468   6.748   0.112 -0.2116  0.1109  0.1355
    1W        W60351  29.322   6.461   0.487 -0.0105  0.1648  0.1858
    1W        W60352  15.451  23.082   1.133 -0.1386 -0.0472 -0.4145
    1W        W60353   6.504  27.334   0.220  0.1767  0.0833 -0.0431
    1W        W60354   7.570  26.536   2.133  0.1958  0.1634  0.3534
    1W        W60355   0.828   7.517   1.368 -0.1183 -0.3232 -0.3177
    1W        W60356   8.565   5.906   7.864 -0.0128 -0.2223  0.0062
    1W        W60357  30.267  15.926   8.516 -0.2444  0.1172  0.0075
    1W        W60358  21.915  27.912   7.120 -0.2782  0.3843 -0.3239
    1W        W60359   8.266  22.551   1.348 -0.0035 -0.2431 -0.0300
    1W        W60360  28.734   1.010   8.581  0.0194 -0.0160  0.0249
    1W        W60361   0.634   4.212   1.309  0.0543  0.1346 -0.1483
    1W        W60362   3.595  12.470   8.190  0.0965  0.3021 -0.2479
    1W        W60363  26.432  23.621   8.597 -0.3218  0.2247  0.0702
    1W        W60364  19.357  21.684   2.541  0.0105  0.0412  0.1086
    1W        W60365   9.192  27.093   2.333  0.1121 -0.0995  0.0552
    1W        W60366   7.169   0.033   2.886  0.1316 -0.0682 -0.0412
    1W        W60367  17.295   8.180   8.439 -0.2770 -0.1906  0.0879
    1W        W60368  25.882  30.262   0.808  0.1930  0.2181  0.0975
    1W        W60369  13.567   8.746   8.550 -0.1277 -0.3113 -0.1826
    1W        W60370  22.885   0.398   0.436 -0.3097 -0.1472  0.2795
    1W        W60371  21.425  30.281   0.454  0.1741 -0.0671 -0.0954
    1W        W60372  14.980   0.349   0.910  0.0620 -0.1641  0.0794
    1W        W60373  15.843   1.509   1.370  0.3166  0.2310  0.0262
    1W        W60374  24.522  16.068   8.172  0.0278  0.1193  0.0125
    1W        W60375   5.175  30.177   2.739  0.2017 -0.2604  0.0006
    1W        W60376  11.884  23.353   0.186  0.3532 -0.1108  0.3285
    1W        W60377  24.731   2.375   3.081 -0.1688 -0.0521 -0.0660
    1W        W60378  20.237  11.472   6.269 -0.0376 -0.1543 -0.0397
    1W        W60379  23.798   1.022   8.745 -0.0863  0.0906  0.1937
    1W        W60380   3.927  26.110   1.497  0.0230 -0.3758 -0.0282
    1W        W60381  12.993   6.404   2.006 -0.3576 -0.0563  0.0036
    1W        W60382   2.194   1.842   2.665  0.1365 -0.1042  0.3468
    1W        W60383   7.185  18.887   9.214 -0.1482 -0.2124 -0.1301
    1W        W60384  12.362  14.163   0.135  0.2197  0.2860  0.0469
    1W        W60385  25.094   8.002   7.284  0.0354  0.2785  0.2016
    1W        W60386  25.758  10.833   7.905  0.1318 -0.0353  0.2108
    1W        W60387   6.752   0.251   7.601 -0.2184  0.0013  0.0135
    1W        W60388  19.335   2.612   3.006 -0.1558 -0.1748  0.1296
    1W        W60389  14.350  25.895   7.071 -0.2420  0.0116  0.1861
    1W        W60390  15.146   3.122   8.645 -0.0048  0.0953 -0.0196
    1W        W60391  23.639   2.165   2.351  0.0176 -0.1578 -0.0674
    1W        W60392   6.719  28.701   1.306 -0.0893 -0.1490 -0.0712
    1W        W60393  21.453   2.504   9.246  0.3650  0.0032 -0.4642
    1W        W60394  22.696  16.644   5.809 -0.1500 -0.0470 -0.2691
    1W        W60395  28.801  19.883   8.895  0.0672 -0.0606 -0.0082
    1W        W60396   5.701  13.549   0.508 -0.0886  0.1073  0.1189
    1W        W60397  12.216  15.981   8.884 -0.0903 -0.1500  0.0708
    1W        W60398  15.546  28.072   0.124 -0.1904  0.2466  0.1468
    1W        W60399  21.073   0.056   6.920  0.3109  0.0741 -0.0610
    1W        W60400   4.326  27.008   1.158 -0.0835  0.2985 -0.3431
    1W        W60401  23.788  27.508   9.188 -0.0153  0.3505  0.1908
    1W        W60402  28.641  14.827   6.658 -0.2202 -0.2095 -0.0158
    1W        W60403  16.180  12.333   3.102  0.1729  0.3130  0.0506
    1W        W60404  11.148   7.036   8.550  0.0637  0.3886  0.5009
    1W        W60405  21.674   1.192   1.072  0.3346  0.0672 -0.0070
    1W        W60406   9.717  13.058   2.554  0.1789 -0.1487 -0.0591
    1W        W60407  19.258  21.642   7.342  0.1235 -0.1154 -0.0193
    1W        W60408  28.174   9.138   0.799  0.0253 -0.1781 -0.0292
    1W        W60409  30.059  24.288   7.035 -0.0717 -0.1741 -0.0129
    1W        W60410  12.708  10.750   0.117 -0.0189  0.1499  0.2061
    1W        W60411  14.706  18.190   7.323 -0.2895 -0.0630 -0.3695
    1W        W60412  12.405  17.223   1.212 -0.0172 -0.0192 -0.2669
    1W        W60413   0.204  25.358   8.826  0.0691  0.2181 -0.2102
    1W        W60414   8.980  17.368   9.041  0.1221 -0.0257 -0.0113
    1W        W60415  12.204  22.897   8.524  0.2134 -0.2121 -0.1242
    1W        W60416   7.449   4.372   7.426 -0.0261  0.0962 -0.1515
    1W        W60417   6.583  12.052   1.956  0.0053 -0.0401 -0.3070
    1W        W60418  22.182  18.421   6.145 -0.1734 -0.3204  0.0725
    1W        W60419  13.962  20.838   0.982  0.0153  0.1182  0.1266
    1W        W60420  21.125  13.756   6.397 -0.0146  0.3781  0.1660
    1W        W60421   2.566  24.616   2.259 -0.1834 -0.1732  0.1910
    1W        W60422  19.212  13.531   2.081  0.4057 -0.2778 -0.1105
    1W        W60423  18.835  15.100   1.691 -0.0462  0.1062  0.0300
    1W        W60424  16.458  16.043   7.187  0.0425  0.0184  0.2069
    1W        W60425  30.003  27.854   7.905  0.0626 -0.0048  0.3342
    1W        W60426  18.872   3.519   7.391 -0.3631  0.0574  0.0314
    1W        W60427  17.686   5.450   0.709  0.1161  0.1667  0.0850
    1W        W60428  11.289   2.408   2.049  0.3394  0.1443  0.0680
    1W        W60429  14.582  13.350   3.810 -0.1195 -0.1032 -0.1258
    1W        W60430   3.211  15.473   1.547  0.1352  0.2162 -0.0022
    1W        W60431  22.136  27.618   8.235 -0.2141 -0.1539 -0.0941
    1W        W60432  21.242  19.248   7.187  0.0401 -0.0147  0.2965
    1W        W60433   9.191   7.445   8.527  0.2259 -0.2191  0.2199
    1W        W60434  26.835   8.676   2.061 -0.0430  0.2414  0.0205
    1W        W60435  27.389  25.165   2.042  0.1148  0.1109 -0.0295
    1W        W60436  25.647   5.879   8.466  0.1256 -0.1108 -0.0400
    1W        W60437  18.355  22.808   1.942  0.2160  0.1207 -0.4028
    1W        W60438  14.005  16.582   2.351  0.2539  0.0057  0.0470
    1W        W60439  10.916  19.583   9.042 -0.0656 -0.1104  0.1858
    1W        W60440  29.038  20.789   0.556  0.0383 -0.2216 -0.1901
    1W        W60441  22.445  14.604   8.955 -0.0878 -0.0981 -0.0708
    1W        W60442   7.435  26.368   0.113  0.2186 -0.0129  0.2255
    1W        W60443   6.479  25.387   0.277 -0.1391  0.2022 -0.0074
    1W        W60444  24.819  15.066   9.064  0.0776 -0.0380  0.1010
    1W        W60445  27.626  26.059   0.690 -0.0596 -0.1947 -0.0550
    1W        W60446   1.730  17.813   7.275 -0.2994 -0.1565 -0.1738
    1W        W60447   5.773  20.110   0.511 -0.0642 -0.3615  0.2198
    1W        W60448  17.405  13.677   1.853  0.0752 -0.1602 -0.1998
    1W        W60449  18.750  27.541   0.973  0.3422  0.1736  0.0965
    1W        W60450  27.560   3.604   8.300 -0.1251 -0.2661  0.0045
    1W        W60451  22.636  16.495   1.479 -0.1720 -0.0298  0.2988
    1W        W60452  19.603   5.080   8.396  0.4621  0.0264 -0.0131
    1W        W60453   9.480  29.570   2.218 -0.1910  0.0694 -0.0453
    1W        W60454  23.101  26.667   7.262 -0.0246  0.0386  0.1311
    1W        W60455  12.057   2.163   7.843  0.0738  0.1420  0.0091
    1W        W60456  11.351  18.366   0.477 -0.1822 -0.1521 -0.2764
    1W        W60457  28.045  13.591   0.433  0.1954 -0.2252  0.0771
    1W        W60458  23.768   0.875   1.310  0.0019  0.0694 -0.0731
    1W        W60459  18.416   4.745   7.447  0.2227 -0.1199 -0.0917
    1W        W60460   0.708  26.661   3.764  0.1407  0.0274 -0.1323
    1W        W60461  15.528   7.786   0.779  0.2361  0.1458  0.1272
    1W        W60462  16.898  23.544   5.808 -0.3517  0.1043  0.1938
    1W        W60463  16.357   7.172   6.413  0.2256 -0.2266 -0.0645
    1W        W60464   1.687  28.663   2.199  0.0395 -0.1051  0.0676
    1W        W60465  18.953  25.061   9.177  0.2881  0.1840  0.1642
    1W        W60466  17.011   0.827   0.412  0.0748 -0.0919  0.3670
    1W        W60467  30.171  14.201   9.063 -0.0588  0.0735 -0.2283
    1W        W60468  28.191   1.051   3.300 -0.1439 -0.2892 -0.1385
    1W        W60469  28.012  27.725   0.775 -0.0708  0.1579 -0.0540
    1W        W60470   5.575  17.265   7.011 -0.0347  0.1002  0.1728
    1W        W60471   2.276   6.668   2.792  0.1269  0.1061  0.2436
    1W        W60472   3.763   4.858   1.521  0.1867 -0.0892  0.3788
    1W        W60473   6.042  25.830   2.225 -0.1477  0.2440 -0.0674
    1W        W60474  29.583  22.062   0.185  0.0905 -0.0540 -0.2628
    1W        W60475  28.853   8.168   9.005  0.4367  0.0744 -0.4155
    1W        W60476  12.248  11.916   1.496 -0.3119 -0.1388  0.4481
    1W        W60477   1.857  23.011   6.644  0.0510  0.2390  0.1279
    1W        W60478  13.157  23.439   2.483 -0.0391  0.0949  0.0700
    1W        W60479  19.494  15.025   0.882 -0.1527  0.1536 -0.1611
    1W        W60480  28.789  12.949   0.721  0.0005  0.2505 -0.1412
    1W        W60481  26.432   5.386   0.254  0.0567  0.0194  0.0911
    1W        W60482  29.211   4.314   2.894 -0.1792 -0.1887 -0.0849
    1W        W60483   5.033  19.881   0.584 -0.2673 -0.0777  0.2228
    1W        W60484  13.089  19.351   7.107 -0.6140  0.0323 -0.2129
    1W        W60485   2.236  25.734   2.834 -0.0475  0.1272  0.5778
    1W        W60486   5.318  22.885   9.100 -0.2694  0.0622  0.3248
    1W        W60487   5.308   1.415   1.421 -0.0051  0.0642 -0.0970
    1W        W60488  20.297   5.609   0.515  0.1773  0.1070  0.2685
    1W        W60489  15.870   3.139   2.063  0.3545 -0.1390  0.2240
    1W        W60490  20.777  12.480   8.867  0.1536 -0.0018  0.1927
    1W        W60491  15.891  12.283   3.902 -0.4708 -0.0998 -0.3072
    1W        W60492   6.350  27.480   8.850  0.1524 -0.2257  0.0662
    1W        W60493   1.005  16.288   8.962 -0.1309 -0.1091  0.3167
    1W        W60494   6.239  18.927   6.534  0.0911  0.2502  0.1265
    1W        W60495  18.318   9.667   7.498 -0.0135  0.1929  0.0932
    1W        W60496  21.460   9.480   8.782  0.0012  0.1060 -0.0357
    1W        W60497   8.330   4.826   1.740  0.1512 -0.0156 -0.1633
    1W        W60498  19.677   8.691   8.164 -0.0274 -0.2544 -0.3946
    1W        W60499   0.591  12.907   8.657 -0.1896 -0.0565 -0.1756
    1W        W60500  12.121  28.977   2.189  0.0430  0.0539  0.0839
    1W        W60501   3.167   3.408   1.798 -0.2946 -0.0499 -0.1832
    1W        W60502  10.816   8.240   0.488  0.3435 -0.2970 -0.1174
    1W        W60503  19.095   8.572   2.186  0.1200  0.2398 -0.2414
    1W        W60504   7.483  16.845   6.564 -0.0582  0.0027  0.0020
    1W        W60505   2.581  29.854   8.396 -0.0839 -0.0927  0.3280
    1W        W60506  26.025  24.368   6.503  0.0462  0.0308  0.1369
    1W        W60507  26.751  21.644   1.652  0.0283 -0.2753  0.0671
    1W        W60508   2.394   9.347   7.440  0.0382 -0.2082 -0.2793
    1W        W60509   3.642  15.910   8.113  0.2383 -0.1744  0.0995
    1W        W60510   8.020  12.025   8.793  0.3237  0.0468 -0.2827
    1W        W60511  10.807  17.750   7.618  0.2760 -0.0804 -0.0639
    1W        W60512   9.091  22.432   7.024 -0.0543 -0.1249  0.0241
    1W        W60513   0.264  11.622   8.668  0.0360 -0.2508  0.0014
    1W        W60514  30.199  28.197   0.106  0.3367 -0.2191 -0.0122
    1W        W60515   1.811   7.999   6.818 -0.0304  0.1258  0.4393
    1W        W60516   4.451  15.272   1.580  0.3297  0.3502  0.0655
    1W        W60517  28.618  12.667   1.201 -0.3333 -0.0542  0.4277
    1W        W60518   2.773   3.762   7.838  0.4921  0.0178  0.0465
    1W        W60519  14.581  12.040   0.244 -0.0569 -0.0703  0.4571
    1W        W60520  15.549   4.278   2.104 -0.2570  0.2362  0.0213
    1W        W60521  17.177   4.795   6.054 -0.2922 -0.1138  0.0668
    1W        W60522  13.017  29.063   8.655  0.2082 -0.1247  0.1238
    1W        W60523   1.280  16.798   8.249  0.2700 -0.2791 -0.0160
    1W        W60524   7.044  15.985   7.177 -0.1261  0.1062 -0.1752
    1W        W60525  28.894  21.102   7.707  0.1973  0.0189 -0.1593
    1W        W60526  23.664  17.761   7.572  0.0483  0.2349 -0.2915
    1W        W60527  29.229  15.193   9.066  0.1337  0.1904 -0.1614
    1W        W60528  21.497  28.872   0.241 -0.0304  0.2272  0.1296
    1W        W60529  29.082  12.851   2.286 -0.0247 -0.2638 -0.3350
    1W        W60530  23.610   9.150   2.240 -0.2860 -0.1868  0.1150
    1W        W60531  15.130  18.238   7.033 -0.0440  0.0108 -0.0461
    1W        W60532   6.070  11.180   0.858  0.0153 -0.0016 -0.2864
    1W        W60533  18.572  14.232   2.197 -0.3223  0.2097  0.3001
    1W        W60534  23.041  15.781   8.197  0.0266  0.0738  0.1762
    1W        W60535   7.883  13.340   1.220 -0.3729  0.3761  0.1870
    1W        W60536  29.810  11.890   1.460  0.1101 -0.1143 -0.1870
    1W        W60537  12.305  27.014   2.621 -0.0819  0.0518 -0.0534
    1W        W60538  23.456  25.370   1.910  0.0651  0.0651  0.1504
    1W        W60539   1.063   5.555   1.740 -0.3094 -0.0901 -0.0633
    1W        W60540   3.013  13.226   7.722 -0.1728  0.3385  0.0144
    1W        W60541  14.096  13.517   0.945 -0.0449  0.2184 -0.0432
    1W        W60542   6.981   5.101   7.259 -0.1111 -0.1817 -0.1010
    1W        W60543  11.999  16.466   9.054 -0.0505  0.0599 -0.2618
    1W        W60544   0.255  20.931   8.064  0.0533  0.1578  0.1804
    1W        W60545  28.939  27.948   8.694  0.2482  0.1423 -0.3169
    1W        W60546  25.396   1.374   0.818  0.0540 -0.1552  0.0663
    1W        W60547  26.509  16.746   8.086 -0.2070 -0.0838  0.0367
    1W        W60548  21.943  18.406   0.241 -0.1748  0.1352 -0.0332
    1W        W60549  22.614   4.679   8.464 -0.2665 -0.3002  0.1916
    1W        W60550  24.081  23.945   5.895 -0.0359 -0.1360 -0.4032
    1W        W60551  11.437  14.986   1.505  0.2462 -0.0505  0.1392
    1W        W60552  16.377  25.897   7.714 -0.1707  0.1914 -0.0345
    1W        W60553  24.103   8.428   2.948  0.4144 -0.0886  0.0747
    1W        W60554  26.878   8.309   2.416  0.0188 -0.0832  0.2766
    1W        W60555  19.521  23.917   2.029  0.0690 -0.4168  0.2439
    1W        W60556  16.128   8.171   5.388 -0.3332  0.1912 -0.2395
    1W        W60557  12.893  16.961   1.371 -0.0191  0.0350 -0.1133
    1W        W60558  30.183   8.105   7.178  0.0564 -0.0218  0.0706
    1W        W60559  20.894  26.092   6.664  0.2472 -0.3641  0.2652
    1W        W60560  13.929  22.656   1.877  0.2956 -0.1933  0.0255
    1W        W60561  16.594  12.914   2.594  0.0219  0.2634 -0.0225
    1W        W60562  14.231   9.830   2.002  0.2340  0.0584  0.0719
    1W        W60563  22.239  28.825   2.204  0.2834  0.1128 -0.0353
    1W        W60564  26.894  28.738   2.673 -0.0159 -0.0079  0.2881
    1W        W60565   1.020  17.670   0.592 -0.1651 -0.2170  0.0180
    1W        W60566   9.007  30.048   0.058 -0.1794 -0.1121 -0.0481
    1W        W60567   8.233   6.443   7.962 -0.2746 -0.5395 -0.0522
    1W        W60568  29.602  22.249   1.377  0.0252 -0.2505 -0.1258
    1W        W60569  18.309  24.517   8.638  0.2966  0.1225  0.1008
    1W        W60570  29.592   7.538   1.581 -0.0124 -0.0539 -0.0261
    1W        W60571  16.912   4.386   7.803 -0.0606  0.0893 -0.1288
    1W        W60572   7.034  15.517   6.873 -0.0175 -0.1152  0.2183
    1W        W60573  14.037   1.966   7.558  0.0367  0.0140 -0.1127
    1W        W60574   9.328   9.546   0.446  0.0188  0.1965  0.3067
    1W        W60575  18.065  23.650   8.960  0.3000  0.1942 -0.1718
    1W        W60576  22.119  25.931   6.143  0.1418  0.5480 -0.3755
    1W        W60577   9.929  10.934   7.367  0.0657  0.0056 -0.2047
    1W        W60578  14.782  26.030   6.724  0.0397  0.3920  0.1584
    1W        W60579  26.114  30.225   8.540  0.1159 -0.0528  0.1960
    1W        W60580   3.288  18.790   8.884 -0.0979  0.1064 -0.0595
    1W        W60581   5.518  21.791   0.332 -0.0169 -0.0287 -0.1523
    1W        W60582  13.197   3.627   6.277  0.1693 -0.3568 -0.2186
    1W        W60583  26.142   5.173   8.238  0.0850 -0.1576  0.0357
    1W        W60584   5.991  20.900   0.190 -0.2799  0.0777  0.0715
    1W        W60585  11.893  22.919   2.024  0.0535  0.1470 -0.0389
    1W        W60586  21.221  11.956   0.733  0.2496  0.2765  0.0447
    1W        W60587  30.299  15.567   6.456  0.1113 -0.2240  0.1086
    1W        W60588   0.334  16.806   0.297  0.0601 -0.0008  0.1868
    1W        W60589  24.670  18.745   5.716  0.3232 -0.1036  0.1616
    1W        W60590  23.584   9.871   8.060  0.1589  0.0559 -0.0958
    1W        W60591   7.022  24.301   1.752  0.1262  0.1498  0.0233
    1W        W60592   2.556  10.028   2.895 -0.1144  0.0462  0.0223
    1W        W60593  14.356  10.571   2.427 -0.1033  0.1974  0.2056
    1W        W60594  15.551  21.551   8.598 -0.0852  0.0390 -0.2839
    1W        W60595  28.994  15.710   0.553 -0.0561  0.2765  0.6625
    1W        W60596  10.033  26.739   0.161 -0.0058  0.0278 -0.0696
    1W        W60597  18.868  25.296   0.648 -0.0952 -0.1850 -0.0688
    1W        W60598   2.396  29.653   3.020  0.2914  0.2144 -0.2846
    1W        W60599   4.057   6.635   1.214  0.0225  0.1369 -0.0450
    1W        W60600   7.499  10.705   0.062  0.4781  0.0001 -0.1643
    1W        W60601  20.787  18.508   0.363 -0.0171  0.1041 -0.1175
    1W        W60602  19.706  20.808   8.908 -0.1206  0.3268  0.2706
    1W        W60603  28.409   4.611   8.532 -0.1422 -0.3257  0.0276
    1W        W60604  25.423  25.559   8.441 -0.1200  0.2149 -0.1285
    1W        W60605   9.372  19.683   1.420  0.1781  0.1589 -0.3083
    1W        W60606  18.026   6.140   6.618 -0.4923 -0.1611  0.3792
    1W        W60607   2.910   1.401   2.791 -0.1426  0.1229  0.3401
    1W        W60608  21.580   4.779   3.729 -0.1477 -0.1752  0.1252
    1W        W60609  23.020   8.905   1.121 -0.0005 -0.2631  0.0622
    1W        W60610   0.299  17.776   1.628 -0.0029  0.0214  0.0921
    1W        W60611   0.291   3.496   9.027 -0.1612  0.2286 -0.1528
    1W        W60612  23.139   6.954   8.952 -0.1481 -0.2594  0.4256
    1W        W60613  30.183  11.093   0.400  0.1743  0.1859 -0.0761
    1W        W60614  14.713   1.623   2.687  0.1873  0.1779  0.0063
    1W        W60615   9.223  24.345   1.474 -0.1353 -0.0831  0.0705
    1W        W60616   7.863   6.018   8.683 -0.4096 -0.0579  0.2294
    1W        W60617   8.996   0.054   8.449 -0.0476  0.1562  0.0860
    1W        W60618  10.455  24.399   1.516 -0.3060  0.2183 -0.0239
    1W        W60619  25.454  24.253   7.245  0.1625 -0.0107 -0.3566
    1W        W60620  25.140  25.668   7.087 -0.1406  0.0551  0.1769
    1W        W60621  22.230  16.621   8.352 -0.1922 -0.1563 -0.0902
    1W        W60622  25.945   3.696   7.234 -0.4451  0.3098 -0.1481
    1W        W60623   5.032   6.181   1.958  0.3574  0.1353  0.3025
    1W        W60624   4.066  27.762   7.691 -0.1435 -0.1443 -0.2807
    1W        W60625  18.237  20.205   6.900  0.1198  0.2068 -0.0457
    1W        W60626   6.689  19.260   9.223  0.0878  0.0706  0.0869
    1W        W60627  26.931   9.969   1.367 -0.0017  0.3500 -0.1961
    1W        W60628  29.438   7.409   0.944  0.0948  0.1515 -0.0420
    1W        W60629  16.322  22.080   1.668 -0.3347 -0.0159  0.0998
    1W        W60630  27.053  27.936   1.968  0.1113  0.2573  0.3535
    1W        W60631   3.951   4.899   0.671  0.1923  0.0806  0.2411
    1W        W60632   9.526   2.801   9.251 -0.0654  0.1804  0.0596
    1W        W60633   1.411  21.883   9.241  0.1399  0.1080 -0.0572
    1W        W60634  11.721  17.383   7.452  0.2028 -0.2265 -0.1845
    1W        W60635   1.655  14.700   1.477  0.0256  0.2662  0.0798
    1W        W60636  16.041  13.678   7.724  0.1319 -0.1354  0.0174
    1W        W60637  20.616   5.683   3.070 -0.0425  0.0503 -0.0331
    1W        W60638  17.879  12.857   0.423 -0.0111  0.0021  0.3469
    1W        W60639   5.311   4.237   8.495 -0.0890 -0.1443  0.0987
    1W        W60640  14.363   5.620   9.133  0.2163  0.1229 -0.3106
    1W        W60641  11.247  27.107   6.693  0.0882 -0.1839 -0.2438
    1W        W60642  16.834  23.512   6.999 -0.2474  0.1818 -0.1133
    1W        W60643   7.714  15.872   7.983  0.1199  0.0917  0.2169
    1W        W60644  27.069  27.130   1.105  0.0674  0.1170 -0.1227
    1W        W60645  22.117  23.076   6.066 -0.1576  0.1175 -0.0048
    1W        W60646   5.785  18.299   5.807  0.1997 -0.0203  0.0921
    1W        W60647  29.942  21.355   0.974  0.2183 -0.1792  0.1692
    1W        W60648   0.061  24.645   6.864  0.1252 -0.3995 -0.0860
    1W        W60649   5.596  16.785   0.103 -0.0100  0.4039  0.0764
    1W        W60650   9.958   2.265   1.231 -0.2835 -0.1090 -0.0604
    1W        W60651   7.486  26.729   0.562 -0.2778 -0.3317  0.0927
    1W        W60652  27.167   1.792   7.077 -0.1041 -0.1225 -0.2195
    1W        W60653   2.007  19.581   7.684  0.1424 -0.1469  0.0731
    1W        W60654   2.221   7.891   7.632 -0.1629  0.0746 -0.0184
    1W        W60655  26.420   8.494   7.108  0.1889  0.2573 -0.1873
    1W        W60656  24.428  21.144   2.043 -0.0171  0.0358  0.1158
    1W        W60657  12.215  20.966   5.566  0.1017 -0.0335  0.2469
    1W        W60658  19.194  18.701   0.254  0.0525  0.2574  0.0332
    1W        W60659   1.802  27.885   1.720 -0.4186 -0.1058  0.0178
    1W        W60660   7.067  29.017   7.527  0.0634  0.0624 -0.0154
    1W        W60661  29.661  10.086   9.116 -0.1051  0.0871  0.0981
    1W        W60662  20.406  19.111   9.134 -0.0934  0.2405  0.0977
    1W        W60663  22.844   3.102   0.528 -0.0546  0.0062 -0.0675
    1W        W60664   0.062  22.380   1.033  0.1416 -0.2339 -0.1762
    1W        W60665  24.033   0.730   0.270  0.0018  0.0010 -0.0920
    1W        W60666  22.729   5.797   7.217  0.0218 -0.2648 -0.2023
    1W        W60667  13.047  10.929   6.667 -0.1704 -0.0252  0.4081
    1W        W60668  16.056  26.262   6.406 -0.0142 -0.2948  0.3091
    1W        W60669  17.259   2.254   0.097 -0.3087 -0.0619 -0.1796
    1W        W60670  26.536   2.066   6.648  0.3324  0.1080  0.1330
    1W        W60671  27.262  19.243   7.694 -0.0753 -0.1951 -0.1066
    1W        W60672  29.879   8.689   1.288  0.3659  0.3891 -0.0686
    1W        W60673  25.173   0.394   7.884  0.0429 -0.2086 -0.0113
    1W        W60674  15.703  26.277   5.984 -0.1501 -0.0500  0.1584
    1W        W60675  26.801   4.848   8.975  0.1084  0.0736  0.0138
    1W        W60676  27.985  20.723   7.349  0.2855 -0.3843 -0.0498
    1W        W60677  12.918   7.089   8.602  0.1444  0.1939  0.0157
    1W        W60678  22.139  27.163   8.765  0.1651 -0.2942  0.0197
    1W        W60679   7.053  19.797   0.592 -0.0809  0.0174 -0.1275
    1W        W60680  28.649  17.323   0.138 -0.0256 -0.1428  0.0832
    1W        W60681   4.413  27.267   3.505  0.0846  0.2502  0.1466
    1W        W60682  28.007   1.277   2.889  0.2231  0.1606  0.2263
    1W        W60683  21.775  21.814   8.815 -0.0284 -0.2112 -0.1948
    1W        W60684  22.100  16.012   6.547 -0.1600 -0.1260  0.0015
    1W        W60685   4.452  11.567   1.415 -0.0188 -0.1239  0.0022
    1W        W60686   3.167  23.279   2.257  0.0610 -0.1801  0.1568
    1W        W60687   3.888  17.377   6.859 -0.3923  0.2334  0.0337
    1W        W60688  21.560   1.558   7.749  0.1830  0.1578 -0.0036
    1W        W60689  11.773   1.536   0.490 -0.2360 -0.3116 -0.2566
    1W        W60690  29.044  22.397   1.364  0.1381  0.0401 -0.1130
    1W        W60691  10.859   5.179   7.283  0.2429 -0.0518 -0.2893
    1W        W60692  15.116   0.583   7.519 -0.1574 -0.0021  0.2483
    1W        W60693  27.439  16.657   9.167  0.0974 -0.0744  0.1020
    1W        W60694  23.898  24.090   8.371  0.0721 -0.0434  0.0170
    1W        W60695  25.532  15.296   5.923 -0.1559  0.1187  0.0073
    1W        W60696  23.910  25.932   8.812 -0.2724  0.2905 -0.1244
    1W        W60697  18.678   2.123   0.201 -0.0176 -0.2756 -0.0892
    1W        W60698  14.176  14.919   2.991  0.1597  0.1016 -0.1175
    1W        W60699  11.480  29.483   1.071 -0.0827  0.4608  0.2882
    1W        W60700  27.826   8.798   8.401 -0.1424  0.0432  0.1085
    1W        W60701  12.757   1.912   8.491 -0.0036  0.2546 -0.0869
    1W        W60702   4.854   2.592   3.025 -0.3446 -0.2014 -0.1329
    1W        W60703   3.412  25.203   2.453  0.0868  0.0948 -0.2182
    1W        W60704  17.664  15.440   7.820 -0.0617 -0.1116 -0.1144
    1W        W60705   2.573   5.864   3.032 -0.1486 -0.0802  0.0675
    1W        W60706  27.657   0.296   2.216  0.1493  0.1870  0.1549
    1W        W60707   9.655   5.928   2.368 -0.0619  0.0092 -0.0010
    1W        W60708   6.538  12.156   8.276  0.0186  0.0079  0.0122
    1W        W60709  26.489  25.280   2.808  0.2135 -0.0610 -0.1538
    1W        W60710  25.605   0.125   2.065 -0.0596  0.0125 -0.2565
    1W        W60711  20.632   2.595   9.086  0.3890  0.1730 -0.0243
    1W        W60712  21.231   7.406   1.272  0.1431 -0.0182 -0.0048
    1W        W60713   4.904  29.023   1.533  0.1141  0.0290  0.2537
    1W        W60714  15.004  24.408   9.172 -0.3114  0.1160  0.0192
    1W        W60715   1.992   7.123   6.694  0.0666 -0.0250  0.0439
    1W        W60716   5.077  19.537   1.181 -0.2979  0.0484  0.2229
    1W        W60717  25.879   1.502   8.872  0.1411  0.2438 -0.4036
    1W        W60718  18.052   3.723   0.061  0.1323  0.5674 -0.2641
    1W        W60719  28.804  27.803   0.150  0.0917  0.1355 -0.3253
    1W        W60720  13.147  13.411   0.890 -0.2019 -0.3263  0.0046
    1W        W60721   3.192  25.960   2.298  0.0202  0.0564  0.3170
    1W        W60722  24.559   5.879   2.934 -0.4422 -0.2508  0.2137
    1W        W60723  22.750  21.390   6.628  0.1217 -0.1023  0.0294
    1W        W60724  23.154  25.848   8.053  0.0334 -0.2349 -0.2124
    1W        W60725   8.893  20.663   7.965  0.2460 -0.0499  0.3387
    1W        W60726  12.320   5.846   8.705 -0.2422 -0.0977 -0.0557
    1W        W60727   3.565  26.357   7.227 -0.0522 -0.2163 -0.3144
    1W        W60728  25.147  24.694   7.996 -0.4501  0.1097 -0.0776
    1W        W60729   6.537  20.169   6.664 -0.0906 -0.0347 -0.1312
    1W        W60730  26.021   6.806   0.908  0.2571  0.0153  0.0632
    1W        W60731  16.453   7.161   6.954 -0.1564 -0.0599 -0.3555
    1W        W60732  29.924   5.168   2.468  0.1948 -0.0836 -0.0195
    1W        W60733   7.216   0.361   2.089 -0.3724  0.2980  0.4018
    1W        W60734   1.341  26.821   0.762 -0.2582  0.3612 -0.1141
    1W        W60735   1.582   1.582   8.472  0.1073  0.1181 -0.0047
    1W        W60736   9.843  29.087   6.759  0.1023  0.0241  0.0122
    1W        W60737  13.494  15.162   2.451 -0.2980 -0.1982 -0.1437
    1W        W60738   1.881   3.553   3.074 -0.0538  0.3041  0.1746
    1W        W60739   5.891  13.133   1.055 -0.0950  0.3191 -0.1945
    1W        W60740   1.054   0.457   3.736 -0.2692 -0.1219 -0.1886
    1W        W60741  20.311  14.347   1.861  0.1590  0.4019  0.2637
    1W        W60742  23.843  13.826   0.951 -0.2504  0.0733  0.2131
    1W        W60743   4.586  11.648   7.722  0.2343 -0.0752 -0.1325
    1W        W60744   8.409  11.710   6.551 -0.0694  0.0699 -0.0306
    1W        W60745  27.967  14.515   6.770 -0.2514 -0.2242  0.1180
    1W        W60746   6.374   4.978   0.509 -0.1465  0.0085  0.0521
    1W        W60747   5.846   3.533   1.841  0.1124 -0.2271  0.0283
    1W        W60748  30.322   0.295   3.902  0.2501  0.2988  0.0105
    1W        W60749  25.182  25.064   2.672 -0.4309 -0.0409 -0.1752
    1W        W60750   9.478  10.693   7.279 -0.2330  0.0699  0.1066
    1W        W60751   5.185   6.478   6.246  0.0622 -0.0340 -0.0357
    1W        W60752  14.373   4.912   8.932 -0.0905  0.1985  0.0301
    1W        W60753  17.150   6.724   8.067 -0.4874 -0.1437  0.1820
    1W        W60754   0.732  29.222   1.537  0.1470  0.1106  0.0581
    1W        W60755  22.317   9.280   0.820  0.0028 -0.1362  0.0972
    1W        W60756  23.984  26.783   7.696  0.1019 -0.0629 -0.0828
    1W        W60757   4.432  15.623   6.911  0.0099  0.2254 -0.0169
    1W        W60758  18.126  13.398   2.283  0.1065 -0.3663  0.1502
    1W        W60759   6.531  23.887   6.932  0.0070 -0.0463 -0.0302
    1W        W60760   7.420  21.077   0.412 -0.1878 -0.0916  0.1322
    1W        W60761   1.744  24.156   0.278  0.0178  0.0211 -0.2948
    1W        W60762   8.820  19.206   9.055  0.0824  0.0196  0.0603
    1W        W60763   6.704   8.896   9.157 -0.1693 -0.2428  0.0842
    1W        W60764  22.486  29.935   2.457  0.0243 -0.1636  0.0490
    1W        W60765   5.317   3.754   2.377 -0.0600  0.0348 -0.3727
    1W        W60766  17.522  19.026   1.607  0.1797 -0.2172 -0.1188
    1W        W60767   2.397  22.269   7.938 -0.0441  0.1965 -0.0964
    1W        W60768  26.614  18.336   6.097 -0.2340  0.2229  0.5638
    1W        W60769  11.940  11.210   0.652  0.0163  0.0150  0.2447
    1W        W60770  17.667  19.505   1.793 -0.1825  0.1001 -0.0163
    1W        W60771  22.804  13.507   8.842 -0.1294 -0.1388 -0.6105
    1W        W60772  18.398  14.215   0.207  0.0162 -0.2159 -0.2272
    1W        W60773  16.381  23.145   7.037  0.1073 -0.1427  0.1588
    1W        W60774  21.761  29.403   0.804 -0.0600 -0.0491 -0.0147
    1W        W60775  19.567  24.381   2.199  0.0929  0.1213 -0.3063
    1W        W60776  14.724  21.545   7.257  0.1692 -0.2493  0.1242
    1W        W60777   8.118  18.472   7.477  0.0636  0.0251  0.1966
    1W        W60778  11.186  23.330   8.151  0.2328 -0.2077  0.3259
    1W        W60779  29.048  13.496   9.107  0.0649  0.1806  0.2527
    1W        W60780  25.576  21.402   6.182  0.1153 -0.0957  0.0432
    1W        W60781  26.403  23.116   8.622  0.4894  0.2833  0.3294
    1W        W60782   3.850  16.318   9.199 -0.1883  0.3159  0.0164
    1W        W60783  27.068  22.455   0.079  0.2086  0.1807  0.2104
    1W        W60784   0.659   2.707   7.777  0.0989 -0.0367 -0.0724
    1W        W60785   8.888   1.028   1.577  0.2291  0.0779  0.0440
    1W        W60786  27.920  24.162   1.725 -0.0409 -0.3309 -0.0034
    1W        W60787  26.837  19.036   0.473  0.0375  0.1575  0.0995
    1W        W60788  15.017   5.120   1.135 -0.0218 -0.3921  0.0504
    1W        W60789  19.352   2.113   6.522 -0.1262 -0.0107  0.0756
    1W        W60790   1.099  18.968   0.202  0.0143  0.0727  0.0366
    1W        W60791  23.217  23.777   1.798 -0.2216 -0.1165 -0.0966
    1W        W60792   8.102   6.580   2.083 -0.4602  0.1081 -0.0998
    1W        W60793   3.032   9.851   3.195  0.0640 -0.1909  0.2012
    1W        W60794  29.657  22.961   7.514 -0.1099 -0.0493 -0.1368
    1W        W60795   0.112  22.419   8.999  0.0769 -0.0457 -0.0365
    1W        W60796   6.003   7.077   7.503  0.0782 -0.0469 -0.0066
    1W        W60797   4.203  21.244   7.766 -0.1841  0.1691 -0.1096
    1W        W60798  13.051   3.811   7.066 -0.1604  0.2194 -0.3294
    1W        W60799  26.045  26.369   2.756  0.0468 -0.1468  0.3132
    1W        W60800  19.912   1.829   3.204 -0.0827 -0.1854 -0.0810
    1W        W60801   2.898   3.903   0.084 -0.2119 -0.1775  0.1368
    1W        W60802   6.413  23.059   9.083 -0.0065  0.0256 -0.0218
    1W        W60803   5.379  19.487   6.158 -0.1917  0.0099 -0.1896
    1W        W60804  28.715  13.666   1.016 -0.1731  0.0639  0.0312
    1W        W60805  26.599  19.092   8.045 -0.0236 -0.1101 -0.0969
    1W        W60806  17.606   6.074   1.438 -0.0911  0.0952 -0.0760
    1W        W60807  18.953   4.862   6.399 -0.0909 -0.1195  0.0684
    1W        W60808  12.768   6.860   0.322  0.0455  0.2594 -0.0410
    1W        W60809   0.105   8.300   0.356  0.1222  0.0517  0.0598
    1W        W60810  15.600   8.597   9.061 -0.0214  0.1737  0.0112
    1W        W60811  27.938  15.816   1.599  0.1693 -0.1187 -0.1806
    1W        W60812  29.120  10.437   8.442  0.2263 -0.0770  0.0349
    1W        W60813  17.419  19.767   1.429 -0.1799  0.0835  0.4945
    1W        W60814  20.689   1.826   0.145 -0.1857 -0.2904 -0.0461
    1W        W60815  21.691  23.777   8.931 -0.2572  0.0699  0.1365
    1W        W60816  13.422   7.980   8.358 -0.4508 -0.1887 -0.3458
    1W        W60817  29.490  11.684   8.112 -0.0949 -0.1495  0.2311
    1W        W60818   4.030  22.633   6.239  0.0688 -0.0046 -0.0049
    1W        W60819   9.154  24.681   9.050 -0.0662  0.0430  0.2266
    1W        W60820  13.906  16.615   7.399 -0.2588  0.0675  0.0713
    1W        W60821  19.039  12.602   8.621  0.2428 -0.0846 -0.1337
    1W        W60822  29.366   6.972   7.598  0.1872  0.3087  0.1549
    1W        W60823   0.764  27.117   2.893 -0.0318  0.0088 -0.1271
    1W        W60824  14.031  26.648   7.422 -0.3228  0.1292  0.1757
    1W        W60825  16.412  26.961   0.788  0.3094  0.0320  0.0982
    1W        W60826  18.295   8.584   2.210  0.1660 -0.2783 -0.0203
    1W        W60827  15.053  17.040   2.215 -0.2617 -0.0770  0.0126
    1W        W60828  21.529   6.940   7.881  0.0899  0.0466 -0.1553
    1W        W60829  16.743   5.275   8.327  0.0520  0.1136 -0.2668
    1W        W60830   4.513  16.446   7.403 -0.1559 -0.2826 -0.1235
    1W        W60831   9.246  15.031   8.508  0.0109  0.0650  0.1766
    1W        W60832  20.599  27.923   8.244  0.0512 -0.0120  0.0942
    1W        W60833  14.535  30.339   7.016  0.0941  0.3658  0.1375
    1W        W60834  26.544   4.213   3.403  0.1933 -0.1127 -0.1511
    1W        W60835  12.164  21.049   8.205  0.1388  0.0565 -0.1701
    1W        W60836  12.728  12.397   2.719 -0.1268  0.0204  0.0249
    1W        W60837  24.752   3.345   2.835  0.1906 -0.2384  0.1673
    1W        W60838  13.033  14.234   3.716  0.3182 -0.2744 -0.0616
    1W        W60839  16.784   3.456   7.570  0.2185  0.1854  0.2162
    1W        W60840  10.040  28.787   3.143  0.1381  0.0654  0.0145
    1W        W60841  13.106   5.315   7.069 -0.0969  0.0799 -0.2735
    1W        W60842  22.530   4.750   7.485 -0.1999  0.2509  0.1101
    1W        W60843   4.892  28.433   8.234 -0.0409 -0.0968 -0.3533
    1W        W60844   8.722  18.640   6.729  0.1666  0.0001  0.1168
    1W        W60845   4.742  13.390   0.964  0.1185 -0.1604 -0.1551
    1W        W60846   2.580  11.226   8.699  0.0968  0.1763 -0.2793
    1W        W60847   2.932  11.728   1.551  0.0505  0.3190  0.1125
    1W        W60848  22.548  12.078   1.892  0.2200  0.1076  0.0850
    1W        W60849  18.271   6.015   5.615 -0.1999  0.2663  0.3085
    1W        W60850   9.359  13.253   0.785  0.3312  0.0990  0.3978
    1W        W60851   5.657   7.951   2.244  0.0347 -0.1203  0.1874
    1W        W60852   4.502   4.555   3.032  0.1756 -0.3600  0.2239
    1W        W60853  12.854   8.053   2.194  0.2876  0.1178 -0.1113
    1W        W60854  15.150  21.103   6.314 -0.0130 -0.3822  0.1461
    1W        W60855   8.011   5.509   0.226  0.1321 -0.3392 -0.2508
    1W        W60856   3.298  12.268   5.980 -0.1388 -0.1451 -0.1406
    1W        W60857  29.126   3.552   0.700  0.0781  0.1041  0.2554
    1W        W60858   9.879  15.452   0.990  0.1946 -0.1357 -0.1371
    1W        W60859  17.437  22.446   2.352 -0.1591  0.2924  0.0426
    1W        W60860  25.993  18.914   8.853  0.0094  0.0366 -0.0785
    1W        W60861  23.538   4.542   8.078  0.2242 -0.1759 -0.1673
    1W        W60862  25.047   1.553   0.458 -0.1291 -0.1778 -0.0912
    1W        W60863  22.241  25.363   0.691 -0.0172 -0.2918  0.1143
    1W        W60864  24.814  26.481   2.448 -0.0891  0.1651  0.0524
    1W        W60865  21.847  27.292   0.643 -0.4541 -0.2313 -0.1598
    1W        W60866  29.381   7.012   8.982 -0.1937 -0.2439 -0.0234
    1W        W60867   4.076  28.101   2.865  0.0404 -0.0705 -0.0339
    1W        W60868  10.894  21.047   9.045  0.2623 -0.1762 -0.2756
    1W        W60869  15.681   2.956   0.230  0.2549  0.1924 -0.1462
    1W        W60870   8.313   7.952   8.562 -0.1634  0.2369 -0.0029
    1W        W60871  11.590  28.584   6.684  0.1796  0.1762 -0.0562
    1W        W60872  12.045  11.593   7.133  0.0324 -0.0748  0.1315
    1W        W60873  18.625  28.223   0.209  0.1385 -0.1225  0.0800
    1W        W60874  10.607  29.483   2.868 -0.2041  0.1398  0.0307
    1W        W60875  29.897   1.578   7.806 -0.6372 -0.0095 -0.2981
    1W        W60876   2.278  10.419   1.143 -0.0291  0.0200  0.0676
    1W        W60877   4.223   0.938   2.869 -0.0576  0.1046 -0.4179
    1W        W60878  10.186   5.974   8.180 -0.0016 -0.4332  0.0115
    1W        W60879   3.042  29.772   3.275 -0.1985  0.1761 -0.1594
    1W        W60880  13.075  26.899   1.162  0.2792 -0.2922 -0.1514
    1W        W60881  28.633  29.524   0.861 -0.0694 -0.0560 -0.1441
    1W        W60882  25.863   9.871   8.328 -0.0690  0.1768 -0.2188
    1W        W60883   6.472   3.502   7.984 -0.0183  0.1300  0.1249
    1W        W60884  22.961  23.110   8.153 -0.0869  0.1275 -0.0289
    1W        W60885   7.232   2.109   7.414 -0.1663  0.0200  0.0428
    1W        W60886  26.145  19.609   6.756  0.3596  0.0859  0.0198
    1W        W60887  29.683   9.083   0.107 -0.0291 -0.2313 -0.0201
    1W        W60888  22.575  24.878   8.563  0.2466 -0.1033  0.1630
    1W        W60889  20.080   6.404   0.877  0.0302  0.1094  0.0255
    1W        W60890  21.330   5.993   1.998 -0.1473  0.0413 -0.0431
    1W        W60891  24.787  17.574   0.748 -0.2648 -0.1497 -0.0948
    1W        W60892  28.532  20.902   1.627 -0.0221  0.0731  0.2560
    1W        W60893  18.258  10.027   1.933  0.2969  0.0974  0.1563
    1W        W60894   0.918  15.180   0.053  0.1783  0.0869  0.0170
    1W        W60895  22.672  21.974   6.594  0.1756  0.2176 -0.0469
    1W        W60896  23.280  29.385   1.631 -0.3035 -0.1199 -0.0349
    1W        W60897   1.950   2.176   9.162 -0.1251 -0.2370  0.0311
    1W        W60898   0.891   5.597   0.328 -0.3473  0.3675  0.3024
    1W        W60899  10.672  18.124   1.849 -0.0018  0.1460 -0.2689
    1W        W60900  13.657  13.350   1.797  0.1705 -0.1604 -0.2072
    1W        W60901   5.555  26.472   8.527  0.0984 -0.2187  0.0790
    1W        W60902  15.020   5.626   2.401  0.0286  0.1993  0.0883
    1W        W60903   5.898   2.102   8.272 -0.1504  0.0350 -0.2331
    1W        W60904   6.985   2.255   8.832 -0.0075 -0.0204  0.0658
    1W        W60905  22.440   3.765   7.328  0.1202 -0.0364  0.0122
    1W        W60906  10.857  19.088   0.846 -0.3077  0.1664 -0.0893
    1W        W60907  17.529  11.721   6.604  0.1640 -0.0652 -0.1400
    1W        W60908  10.962   1.361   3.241  0.0466 -0.0038 -0.2055
    1W        W60909   9.844  28.520   0.085  0.1110 -0.1265 -0.1774
    1W        W60910   1.841  14.150   9.057  0.0770 -0.1206  0.0208
    1W        W60911  25.146  20.949   8.955  0.0940  0.1777  0.1643
    1W        W60912   0.982  11.519   8.335 -0.1189 -0.2256  0.0149
    1W        W60913  24.744  13.176   1.169  0.0576  0.0515  0.4210
    1W        W60914  29.216  19.709   8.033 -0.1154  0.0772  0.2717
    1W        W60915  16.545  29.536   1.821  0.1110  0.2612  0.1899
    1W        W60916   7.119   1.560   2.554 -0.4207  0.1898 -0.0224
    1W        W60917  16.070  16.532   1.082 -0.0505 -0.2383  0.0297
    1W        W60918  27.810   0.299   2.759  0.1859 -0.4145  0.0713
    1W        W60919   8.162  10.793   1.998  0.2383  0.1655  0.1820
    1W        W60920  29.961  19.468   6.575  0.1825  0.1949 -0.0462
    1W        W60921   2.643  25.403   2.879  0.2105  0.1236  0.0764
    1W        W60922  24.098   3.381   0.418 -0.1611  0.1224 -0.1593
    1W        W60923  11.137   7.497   1.080  0.2258  0.0182  0.1994
    1W        W60924   0.060  22.330   6.410  0.1685  0.1544 -0.0961
    1W        W60925  14.770  24.330   6.448  0.2226 -0.2107  0.6955
    1W        W60926  22.480   9.438   6.693 -0.2932 -0.1236 -0.1152
    1W        W60927  26.024  25.913   6.332  0.4031 -0.3142  0.1487
    1W        W60928  12.199  27.539   2.781 -0.0937  0.0921  0.0230
    1W        W60929   6.333  21.503   8.699  0.0139 -0.0012 -0.0933
    1W        W60930  17.471   1.899   6.507 -0.1832 -0.0442 -0.0185
    1W        W60931  12.417   9.587   8.717  0.0864 -0.2131 -0.4008
    1W        W60932  27.874   0.463   8.479 -0.1069  0.3218  0.2449
    1W        W60933   7.952  22.102   1.808  0.1567 -0.0941 -0.0846
    1W        W60934  17.585  24.005   2.499  0.0961  0.0872 -0.2966
    1W        W60935  16.103  21.451   7.561  0.1310 -0.0673  0.1850
    1W        W60936  10.079  22.034   6.040 -0.1054 -0.1634 -0.0185
    1W        W60937   0.413  10.613   0.708  0.0741  0.0162 -0.1577
    1W        W60938   6.955  17.241   8.931  0.0028 -0.0451 -0.1269
    1W        W60939  29.058  21.935   8.152 -0.0023 -0.0104  0.1460
    1W        W60940  24.855  10.667   0.361 -0.1887  0.2135 -0.2913
    1W        W60941   3.168   9.571   8.838 -0.1154  0.1633 -0.2257
    1W        W60942  18.365  16.459   2.063 -0.1151  0.0294 -0.0192
    1W        W60943  16.450  26.259   7.313  0.4898  0.2683 -0.0245
    1W        W60944   3.342   8.474   8.150  0.1837 -0.3215  0.1838
    1W        W60945  20.113   7.354   7.210  0.1789  0.0416  0.1767
    1W        W60946  11.219  13.652   1.281 -0.0706  0.1359  0.1632
    1W        W60947   3.210  23.240   1.365  0.1307 -0.1604 -0.0910
    1W        W60948  25.597  17.431   0.142 -0.0124 -0.1847  0.0636
    1W        W60949  27.141  24.294   0.823  0.2988  0.0242  0.1754
    1W        W60950   5.560  20.196   7.966 -0.0669 -0.0228  0.1849
    1W        W60951  21.880   3.918   1.364  0.0950  0.2008  0.1143
    1W        W60952   4.024  25.571   9.120 -0.2907 -0.2110 -0.2270
    1W        W60953  25.178  14.721   9.014  0.1364 -0.0497  0.0120
    1W        W60954  20.268   1.018   2.195 -0.0886 -0.0849  0.0745
    1W        W60955  23.894  22.379   6.128 -0.1718  0.0371  0.1283
    1W        W60956  29.224  11.544   9.229  0.0544 -0.0258  0.0882
    1W        W60957  18.181  14.674   8.276 -0.2485 -0.1532 -0.1631
    1W        W60958   8.753  30.060   8.151  0.2182 -0.1377 -0.4583
    1W        W60959   1.014  23.658   0.156  0.0735  0.0310 -0.1875
    1W        W60960   2.108   2.469   0.842 -0.1330 -0.0810 -0.1990
    1W        W60961   0.665  10.319   7.405 -0.4705  0.0116 -0.0774
    1W        W60962  16.263  20.142   1.731 -0.2520  0.3460  0.1182
    1W        W60963  18.049  11.432   0.440 -0.2063  0.3552  0.2689
    1W        W60964   7.893  28.309   0.732  0.0761  0.1305 -0.1531
    1W        W60965   4.353  28.821   1.515 -0.1718 -0.0325 -0.2223
    1W        W60966  24.233   1.795   0.540  0.1027 -0.0756  0.0202
    1W        W60967  27.380  11.057   8.879 -0.1602 -0.0820 -0.1842
    1W        W60968  27.859  14.986   1.421  0.0570 -0.2999 -0.1131
    1W        W60969   1.753  13.124   9.095 -0.0757 -0.0489  0.0843
    1W        W60970   8.852  24.974   8.480 -0.0379 -0.1689  0.0463
    1W        W60971  25.269   5.173   0.780  0.0731  0.1206 -0.0729
    1W        W60972   7.570  24.521   0.405 -0.1235  0.4804  0.2335
    1W        W60973  28.360   0.270   9.210 -0.0937 -0.3536  0.0149
    1W        W60974   6.765   3.044   0.257  0.1076 -0.0932 -0.0094
    1W        W60975   4.848  30.288   1.522 -0.3447 -0.0606  0.0170
    1W        W60976  19.224  22.054   6.937 -0.0457  0.0128 -0.1408
    1W        W60977  28.959  26.005   2.184  0.1327  0.1066  0.3643
    1W        W60978  25.908  10.366   8.166  0.0725  0.2539  0.2379
    1W        W60979  22.996   7.724   6.702 -0.2315 -0.2472  0.2089
    1W        W60980  22.907  13.042   0.759  0.0532 -0.0582 -0.3748
    1W        W60981   2.200  27.038   3.146  0.1569 -0.2259  0.0076
    1W        W60982   8.151   5.320   1.571  0.2751  0.0318  0.0232
    1W        W60983  28.041  23.621   1.860  0.0412 -0.1615  0.0200
    1W        W60984  19.212   4.750   6.833 -0.0383  0.0324 -0.0077
    1W        W60985  16.598  19.873   0.262 -0.0202  0.2113  0.2333
    1W        W60986   4.562  10.948   1.158  0.0861 -0.1007  0.0497
    1W        W60987  16.906  12.555   2.362  0.1412 -0.0991 -0.1246
    1W        W60988   6.348   8.869   0.640  0.2076 -0.1788 -0.2936
    1W        W60989  24.870  21.402   8.698 -0.2192  0.3949  0.1520
    1W        W60990   0.244  27.635   0.781 -0.0838  0.0580  0.1476
    1W        W60991   8.212  25.171   2.601  0.0404 -0.0675 -0.1352
    1W        W60992   7.227  29.173   6.502 -0.0729 -0.1716 -0.1721
    1W        W60993  26.700  11.404   1.570 -0.0670  0.0732  0.4039
    1W        W60994  21.277  28.778   7.140 -0.1256 -0.0977 -0.1375
    1W        W60995   9.545  15.971   8.565  0.2774  0.1119  0.0995
    1W        W60996  28.430  15.197   1.183  0.2280 -0.0054  0.1521
    1W        W60997  24.112   8.595   1.809  0.1179 -0.0847  0.2785
    1W        W60998  19.223  23.115   7.989 -0.0287  0.1725 -0.2252
    1W        W60999   4.590   0.861   1.098  0.0037  0.1705 -0.2834
    1W        W61000  13.167  27.913   0.678  0.3125  0.0759 -0.0955
    1W        W61001   0.817   4.010   7.637 -0.0035 -0.0308  0.1456
    1W        W61002  15.587  13.888   6.993 -0.0836  0.2353  0.0392
    1W        W61003  11.598   4.327   1.183  0.2613  0.1434 -0.1607
    1W        W61004   5.858  25.344   3.041  0.1363 -0.0098  0.3034
    1W        W61005   9.208  20.063   6.925  0.0538 -0.1036 -0.0916
    1W        W61006  11.369  25.369   2.569 -0.2684 -0.0019  0.2436
    1W        W61007   6.036  19.324   6.835 -0.0960 -0.3581  0.1254
    1W        W61008  18.831  26.980   7.035  0.0710  0.0584  0.3777
    1W        W61009  19.818   1.482   7.108 -0.1105  0.0959  0.1159
    1W        W61010  11.034  11.458   2.356  0.0688  0.1009  0.0811
    1W        W61011  21.724  20.219   1.142  0.2212 -0.0504 -0.1728
    1W        W61012   3.629   0.295   2.698 -0.1506 -0.1446  0.0826
    1W        W61013   5.059  14.688   7.297  0.1543 -0.0531 -0.2371
    1W        W61014  20.101   9.157   6.253 -0.0230  0.1741 -0.0385
    1W        W61015   9.053   3.400   0.423  0.2357  0.2872 -0.0612
    1W        W61016  23.377   4.021   2.012  0.4183 -0.0549  0.0704
    1W        W61017  29.968  22.867   2.092  0.1553  0.1537 -0.1533
    1W        W61018  22.933   7.910   8.263 -0.0746  0.1801  0.1851
    1W        W61019  10.407  16.414   7.693  0.2547  0.0701 -0.0914
    1W        W61020   9.664  18.504   0.682 -0.0899 -0.0728 -0.0761
    1W        W61021   5.292   4.635   1.488  0.1114  0.2935 -0.1957
    1W        W61022  22.907  14.372   7.316  0.1787  0.0128 -0.1928
    1W        W61023   3.978  20.130   8.683  0.1870 -0.0465 -0.1052
    1W        W61024  23.781  16.878   8.000 -0.0532 -0.3038  0.0999
    1W        W61025  14.101   9.998   7.182 -0.2547 -0.1812  0.3322
    1W        W61026  22.049  16.638   1.421 -0.1552  0.0282 -0.0017
    1W        W61027   0.087  17.282   0.233 -0.0676  0.3070  0.0961
    1W        W61028  14.721  27.054   7.034  0.1689 -0.0547  0.1722
    1W        W61029   7.818   7.003   9.270  0.0782  0.3071  0.0602
    1W        W61030  12.950  19.225   9.185  0.4440 -0.0195  0.0355
    1W        W61031   9.526  26.798   1.724 -0.0171  0.1633  0.2980
    1W        W61032   9.327  26.216   5.839  0.0505 -0.2814 -0.0984
    1W        W61033   5.277  27.079   7.212 -0.3093 -0.1819 -0.0704
    1W        W61034   9.355   5.025   8.490  0.1433  0.1808 -0.1047
    1W        W61035  25.604  22.225   7.821  0.1690  0.3396 -0.0710
    1W        W61036   9.536  30.201   8.576 -0.1166  0.1908 -0.0327
    1W        W61037  14.547   5.156   7.919  0.0028  0.0580 -0.2000
    1W        W61038   1.382   5.361   7.702 -0.0467  0.4669  0.1415
    1W        W61039  28.229   0.429   1.419  0.2450 -0.0505  0.3330
    1W        W61040  13.663  10.792   6.604 -0.0637 -0.2263 -0.2464
    1W        W61041  11.503  11.456   8.059  0.0555 -0.3715 -0.3621
    1W        W61042   8.043  22.888   7.716 -0.2696  0.0380 -0.2999
    1W        W61043  26.923  13.811   2.429  0.2547  0.3960  0.3007
    1W        W61044  26.471  24.415   6.906 -0.4058 -0.0059 -0.0270
    1W        W61045  23.451  29.428   7.512  0.3636 -0.1034 -0.2213
    1W        W61046   6.572  22.470   0.428 -0.2248  0.0860 -0.0629
    1W        W61047  25.365   7.763   6.936  0.1164 -0.0730 -0.1520
    1W        W61048  20.487  10.644   0.131  0.4193 -0.2086 -0.0086
    1W        W61049  14.257   4.469   8.483 -0.4106 -0.3055  0.2414
    1W        W61050  22.672   8.726   0.075 -0.0235  0.2769 -0.1580
    1W        W61051  27.095  22.135   8.415  0.2291 -0.4860  0.0221
    1W        W61052   2.772  20.189   7.636  0.3883 -0.1627 -0.1344
    1W        W61053  18.456  14.737   6.791 -0.3518  0.1053  0.3505
    1W        W61054  14.203  23.430   3.109 -0.0632 -0.4653 -0.3370
    1W        W61055  30.177   9.589   3.086  0.0481 -0.1071 -0.0954
    1W        W61056   1.649  24.992   2.615 -0.1416 -0.1214 -0.0760
    1W        W61057   6.050   3.511   7.739  0.0320 -0.1055  0.0899
    1W        W61058   9.224   8.620   9.259  0.1831 -0.1542 -0.1971
    1W        W61059  16.465  16.153   7.871  0.0094  0.2266  0.0972
    1W        W61060  22.441  18.443   1.051 -0.1408  0.1963  0.2629
    1W        W61061  29.140  12.705   0.440  0.0852 -0.1966  0.1574
    1W        W61062  28.204   3.654   0.250 -0.3364  0.2096 -0.1270
    1W        W61063  21.216  10.379   5.811 -0.1470 -0.1843 -0.1877
    1W        W61064  23.236  22.259   5.815 -0.0327 -0.4164 -0.3204
    1W        W61065  23.849  19.983   5.847  0.1550  0.0564 -0.2804
    1W        W61066  15.975  21.188   6.648 -0.4610  0.0667  0.0498
    1W        W61067  15.099  25.664   6.873 -0.4701  0.1159 -0.2115
    1W        W61068  19.491  10.495   8.974  0.0884  0.1457  0.1310
    1W        W61069  10.303   4.119   8.676  0.0899  0.1917  0.0720
    1W        W61070   9.877   4.183   8.413 -0.1316  0.0085  0.2046
    1W        W61071   4.077  12.707   7.043  0.0478 -0.2470  0.0360
    1W        W61072  11.494  14.578   2.938  0.2953 -0.0250  0.1526
    1W        W61073  20.890  27.561   0.056  0.0727  0.4195 -0.1227
    1W        W61074  19.058  17.914   6.510  0.1268 -0.0372 -0.1595
    1W        W61075  16.672  11.496   6.977 -0.3304 -0.0416 -0.0691
    1W        W61076  20.060  22.568   9.250 -0.0037 -0.1112  0.0436
    1W        W61077   4.478   9.560   1.962  0.0095  0.1410  0.0749
    1W        W61078  24.773  24.590   1.022 -0.1494 -0.1173  0.4454
    1W        W61079  14.510  16.725   8.575 -0.1385 -0.0916  0.3034
    1W        W61080  24.194  14.991   0.754 -0.0469  0.0543  0.1432
    1W        W61081  21.274  26.627   2.438  0.0906 -0.3000 -0.1073
    1W        W61082  16.017  27.444   0.840  0.2122 -0.0163  0.1632
    1W        W61083   5.295  18.259   1.342  0.1440 -0.0194  0.0522
    1W        W61084  24.121  24.316   1.565 -0.1733  0.2498  0.0452
    1W        W61085  20.735  28.622   2.135  0.0340  0.2612  0.1917
    1W        W61086  29.302   4.575   8.082  0.2135  0.3008 -0.1524
    1W        W61087  20.784   7.480   0.545  0.1413  0.0952 -0.1241
    1W        W61088  28.680  24.655   7.920 -0.2640  0.1004 -0.0469
    1W        W61089  11.600   5.553   8.631 -0.0809  0.1697  0.0491
    1W        W61090  18.423  29.321   7.411 -0.2209 -0.0915  0.4277
    1W        W61091  26.422  14.304   7.703 -0.0530 -0.0483 -0.0579
    1W        W61092  16.196  27.976   0.859  0.0729  0.0211 -0.0629
    1W        W61093  23.711  25.467   9.100 -0.1727  0.1802 -0.0414
    1W        W61094   8.088   6.547   1.564  0.3530 -0.2357 -0.1950
    1W        W61095  29.573   4.470   0.727 -0.0406  0.0078  0.1093
    1W        W61096  27.755  28.104   7.706 -0.1124 -0.2251 -0.0778
    1W        W61097   5.393  24.348   7.249 -0.2358  0.2801 -0.2095
    1W        W61098  18.692  28.001   8.391 -0.1957 -0.0466 -0.1279
    1W        W61099  27.676  27.890   1.401  0.1736 -0.4764 -0.0563
    1W        W61100  27.445  29.759   2.223 -0.0993 -0.2757  0.1877
    1W        W61101   6.710  16.889   8.541 -0.0370  0.0471 -0.0293
    1W        W61102  20.982  20.598   0.358 -0.2613  0.0125  0.0061
    1W        W61103  27.821   3.089   8.189  0.3384  0.2169  0.1229
    1W        W61104  13.186  11.895   7.912 -0.0728 -0.2334  0.2784
    1W        W61105  27.759  19.518   6.847  0.0167 -0.1167 -0.0976
    1W        W61106   9.472  17.946   8.961  0.1084 -0.0266 -0.0739
    1W        W61107  18.851  27.547   2.740  0.0449  0.2479 -0.3957
    1W        W61108  18.285  18.586   9.151  0.1216 -0.0411  0.0181
    1W        W61109  26.764  13.087   1.133  0.4075  0.2511 -0.0469
    1W        W61110   8.413  20.529   6.461  0.0758 -0.2262  0.1654
    1W        W61111  24.707  27.342   7.792  0.2676  0.1515  0.3623
    1W        W61112   3.336  22.098   9.010 -0.1124  0.0275  0.3042
    1W        W61113  25.388  11.819   8.296 -0.0089  0.0188 -0.1446
    1W        W61114  24.681  13.919   6.513  0.1327  0.0740 -0.1120
    1W        W61115   4.963   4.203   8.875 -0.1493 -0.1552 -0.2295
    1W        W61116  15.294  19.494   0.486 -0.0335 -0.2411 -0.0849
    1W        W61117   7.802   5.484   0.710  0.0625 -0.0738  0.0110
    1W        W61118  15.473   5.681   8.396  0.3149 -0.0697  0.0234
    1W        W61119   5.873  30.280   1.515  0.0219  0.2559 -0.1498
    1W        W61120   8.594   3.499   8.588  0.2079  0.0603 -0.1217
    1W        W61121  29.854  24.556   8.006  0.1916  0.0931 -0.0770
    1W        W61122  28.523  18.103   7.413  0.0284 -0.2356 -0.0578
    1W        W61123   4.511   6.902   8.145  0.0941  0.3537  0.0499
    1W        W61124   1.513   8.625   2.417 -0.0922 -0.0536  0.1254
    1W        W61125  20.248  14.217   8.983 -0.0644 -0.0456  0.1490
    1W        W61126   6.893  26.230   6.252  0.1544  0.0180  0.0458
    1W        W61127  22.350  20.911   0.858 -0.1099 -0.1848  0.4644
    1W        W61128   1.650   3.994   2.841  0.0393 -0.0369 -0.1027
    1W        W61129   1.330  15.328   9.154 -0.3348 -0.2070 -0.0573
    1W        W61130   8.015   2.854   0.369  0.0272  0.0531 -0.1498
    1W        W61131  12.509   8.504   7.762  0.1495  0.1458  0.0635
    1W        W61132  20.136  12.468   0.202  0.2551  0.0832  0.1878
    1W        W61133  20.875  25.037   1.516 -0.0138  0.0534  0.2410
    1W        W61134  21.954  28.151   6.242  0.0049 -0.4448 -0.1279
    1W        W61135  23.435   5.674   0.224 -0.0721  0.3384 -0.2926
    1W        W61136  21.582  10.696   6.842  0.0021 -0.2762  0.0984
    1W        W61137  22.859   1.775   7.871 -0.1805  0.1545  0.3741
    1W        W61138  15.158   3.739   7.534  0.0351 -0.0612  0.0583
    1W        W61139  23.729  10.044   7.258  0.3085 -0.0347  0.1936
    1W        W61140  22.709  22.734   8.450 -0.2609  0.0692  0.2330
    1W        W61141   5.369  30.355   1.644 -0.3779 -0.0376 -0.0841
    1W        W61142  24.905  11.822   7.655 -0.2291 -0.0737  0.0339
    1W        W61143   1.319   7.866   6.769 -0.4286  0.1094  0.0504
    1W        W61144   8.774   5.470   8.293 -0.0152  0.2556  0.0707
    1W        W61145   5.623   6.494   3.386  0.0566  0.0917 -0.1268
    1W        W61146   5.589  10.280   0.693 -0.2175 -0.2663  0.0154
    1W        W61147  22.858  15.514   1.238  0.0327 -0.3422  0.1669
    1W        W61148  24.947   4.576   0.019 -0.2489 -0.0904  0.0137
    1W        W61149  14.979   9.352   1.601 -0.1385  0.1325 -0.2861
    1W        W61150   4.836  28.589   1.235  0.2750 -0.2134 -0.0367
    1W        W61151  11.924  22.084   8.569  0.2612 -0.0185 -0.1047
    1W        W61152  22.976  27.745   7.790 -0.2197  0.1295  0.0892
    1W        W61153  20.762  20.937   7.076  0.3695  0.0486 -0.0522
    1W        W61154  26.653  10.783   7.616 -0.3444 -0.0322 -0.0557
    1W        W61155  10.946  13.531   0.024  0.2964 -0.0145 -0.1866
    1W        W61156   9.533  29.045   0.748  0.1679  0.2663  0.0085
    1W        W61157   3.003  15.687   9.081  0.1991 -0.0080 -0.0896
    1W        W61158  11.449   1.082   7.380  0.2676  0.0115 -0.0389
    1W        W61159   0.294   3.769   7.659 -0.1976  0.1077  0.1861
    1W        W61160  11.045   3.795   1.939  0.1962 -0.1145  0.2392
    1W        W61161   0.663   2.562   3.380 -0.1471 -0.2683  0.0296
    1W        W61162  14.189  18.371   8.076 -0.0395  0.1874  0.5754
    1W        W61163  16.415  24.028   2.273  0.1629  0.2486 -0.0677
    1W        W61164  15.494   7.637   1.791  0.0187 -0.0694 -0.4256
    1W        W61165   5.387  29.600   2.815  0.2322 -0.1594  0.1422
    1W        W61166  27.450  18.166   6.413  0.0769  0.0640 -0.0197
    1W        W61167  18.242  11.706   1.945  0.3092  0.1915 -0.1839
    1W        W61168  24.111  19.718   7.083  0.2449 -0.0472 -0.0803
    1W        W61169   7.263  27.152   1.257 -0.1008 -0.0764  0.3642
    1W        W61170   8.072  15.904   8.386  0.1397 -0.0705  0.0178
    1W        W61171  24.313  20.682   2.415  0.1398 -0.1839 -0.1789
    1W        W61172  22.573  18.376   6.985  0.0593  0.1148 -0.2490
    1W        W61173   9.132   3.376   6.718  0.0721  0.0953  0.1030
    1W        W61174  22.644  20.394   7.685 -0.0862 -0.0578  0.1755
    1W        W61175  14.615   9.838   7.836 -0.1865  0.1169 -0.3484
    1W        W61176  13.349  30.211   2.481  0.2473 -0.1980 -0.0325
    1W        W61177  26.642  22.683   0.279  0.0294  0.1612 -0.0396
    1W        W61178  23.846   9.597   2.598 -0.2734  0.0230 -0.3622
    1W        W61179  11.494  19.786   1.156 -0.0192 -0.2412  0.2658
    1W        W61180  24.491  21.908   6.474  0.0154 -0.2398  0.0962
    1W        W61181  18.671  22.281   8.300 -0.2971  0.0206 -0.0173
    1W        W61182   4.432   5.456   8.461  0.0898  0.2171 -0.4459
    1W        W61183  22.837  17.417   8.708  0.1062 -0.1518 -0.2183
    1W        W61184  17.690   8.184   8.177  0.0959  0.1174  0.0976
    1W        W61185  23.626  23.078   2.713  0.0312 -0.3028 -0.0586
    1W        W61186  15.666  28.973   7.871 -0.0275  0.1642  0.1520
    1W        W61187  25.912  24.399   2.751 -0.3455 -0.0181  0.0699
    1W        W61188   3.719  15.376   8.941  0.5729  0.0479  0.4337
    1W        W61189  23.737  23.729   7.203  0.0211  0.3606  0.1540
    1W        W61190  25.076   9.831   5.688 -0.0112 -0.0249 -0.1684
    1W        W61191  29.014   2.517   8.469 -0.0029  0.3454  0.0490
    1W        W61192  22.154   2.470   0.630  0.2242 -0.2222 -0.1094
    1W        W61193  19.990  20.428   2.398 -0.3967  0.0239  0.0600
    1W        W61194   9.545  26.413   6.722  0.1617  0.3418  0.0523
    1W        W61195   2.930  14.427   9.237  0.0279 -0.0751  0.1693
    1W        W61196  15.446  18.630   6.384 -0.0079 -0.4013 -0.0637
    1W        W61197  27.398  29.763   3.709  0.0688  0.0681  0.1572
    1W        W61198   9.865  22.798   1.926  0.2562 -0.5612 -0.0986
    1W        W61199   9.504  29.307   9.017  0.3777 -0.0910  0.3578
    1W        W61200   6.778  17.233   7.546 -0.0112 -0.1226  0.2329
    1W        W61201  24.241   0.127   6.509  0.2129  0.2974  0.1777
    1W        W61202  25.716   3.045   9.167  0.2871  0.2153 -0.0194
    1W        W61203  25.894  19.423   8.987  0.0140  0.0674 -0.2913
    1W        W61204   1.938   4.899   2.931 -0.1433 -0.1355  0.1572
    1W        W61205  26.656  18.265   9.175  0.0379  0.1307  0.0804
    1W        W61206  25.246  26.113   0.763  0.3995 -0.0800  0.0368
    1W        W61207  24.851  25.309   7.878 -0.1114 -0.0435 -0.3619
    1W        W61208  19.337   9.188   1.127 -0.0252 -0.0211  0.1263
    1W        W61209  27.751  19.629   0.160  0.1346  0.0822  0.1715
    1W        W61210  27.962   6.142   7.779 -0.0950  0.3167 -0.1815
    1W        W61211  19.412   1.208   8.184 -0.3102  0.1367  0.2539
    1W        W61212  28.436   7.168   0.638  0.1295 -0.1186 -0.2188
    1W        W61213  19.934  14.090   2.092 -0.1612  0.2126  0.1809
    1W        W61214   7.561   5.920   8.196 -0.1786 -0.1236 -0.2468
    1W        W61215  15.010  24.812   0.235 -0.2292  0.0897  0.0503
    1W        W61216  11.784  13.967   8.880  0.0922 -0.0770  0.4976
    1W        W61217   2.939   4.534   6.654 -0.1883  0.3535  0.7953
    1W        W61218  17.056  11.443   1.400  0.0065 -0.1373 -0.1159
    1W        W61219   1.489   9.867   2.612 -0.1650  0.0429  0.1335
    1W        W61220  16.186  22.902   2.267  0.0302  0.0642 -0.3035
    1W        W61221  10.386  20.287   0.013  0.0590  0.1570  0.4052
    1W        W61222   3.417  15.027   1.419 -0.1357  0.1063  0.0687
    1W        W61223  10.242   5.895   6.729  0.1578  0.2473 -0.6320
    1W        W61224  28.766   7.982   2.658  0.0273 -0.2888  0.1298
    1W        W61225  24.808  19.395   7.649 -0.0260  0.3846 -0.3276
    1W        W61226  18.459   2.223   1.629 -0.0375  0.0980  0.1107
    1W        W61227  12.696  13.870   7.049  0.0738  0.0540  0.0289
    1W        W61228   2.239  17.644   1.590  0.0501  0.0094  0.1791
    1W        W61229  20.576   4.416   7.147 -0.1037 -0.1756 -0.3150
    1W        W61230  15.740  21.683   6.478  0.1530 -0.0778 -0.2360
    1W        W61231   7.071  20.129   1.116  0.0081  0.0097 -0.0951
    1W        W61232   3.231   5.678   0.959 -0.0976  0.1144  0.2975
    1W        W61233  11.263   8.249   0.903  0.0099  0.1438 -0.2673
    1W        W61234   4.411  10.779   6.485  0.1176  0.0601  0.0499
    1W        W61235  16.498   5.970   0.160 -0.2680 -0.1676 -0.2336
    1W        W61236  27.132   3.070   0.879  0.3125  0.3083 -0.1232
    1W        W61237  20.630  22.765   2.338  0.1352  0.0273  0.1394
    1W        W61238  28.759  26.173   8.996  0.0796 -0.1768 -0.1812
    1W        W61239  11.698  23.670   0.567 -0.0776 -0.1408  0.1521
    1W        W61240  14.652  15.614   1.926 -0.3726  0.0339  0.2822
    1W        W61241  20.980   0.859   2.082 -0.0383 -0.2892  0.1269
    1W        W61242  19.200  26.622   8.446 -0.0051 -0.0061  0.0509
    1W        W61243  12.756  24.363   2.353  0.4149  0.1009 -0.0111
    1W        W61244  17.105   0.113   8.431  0.0490  0.2261  0.0199
    1W        W61245   5.645   7.100   2.632  0.0559 -0.1687 -0.0559
    1W        W61246  17.718  10.123   6.186  0.1205  0.1845  0.1306
    1W        W61247  27.542  11.873   1.425 -0.1081 -0.0672  0.1030
    1W        W61248  19.632  29.144   0.781  0.1410  0.0401 -0.1432
    1W        W61249  17.228  20.294   8.459  0.1001 -0.0454  0.1412
    1W        W61250  27.519   4.216   0.986 -0.0192 -0.1926 -0.3935
    1W        W61251  15.266  20.616   9.118 -0.0368  0.2261 -0.3254
    1W        W61252   7.412   7.765   2.045  0.0283  0.2963 -0.0280
    1W        W61253  26.695  12.467   6.778 -0.0628 -0.0682 -0.0033
    1W        W61254  28.817   3.305   0.441  0.2402  0.2392  0.2486
    1W        W61255  19.630   6.865   1.797  0.2196  0.0890  0.3623
    1W        W61256  30.227  25.317   7.380 -0.2620  0.2942  0.3642
    1W        W61257   0.537  18.619   0.414  0.2278  0.0898 -0.3312
    1W        W61258   9.164  18.723   0.372  0.3358  0.1332  0.3291
    1W        W61259  21.020   5.202   8.800 -0.1775  0.1664 -0.1569
    1W        W61260   6.431   1.905   1.600  0.1875 -0.0695  0.0885
    1W        W61261  24.599  16.832   7.764  0.0500 -0.0852  0.0672
    1W        W61262  22.461  12.374   7.782 -0.0555  0.4255  0.1641
    1W        W61263   7.699  11.726   2.190 -0.1467  0.3711 -0.1088
    1W        W61264  12.504  25.786   6.291 -0.1043 -0.0200  0.2188
    1W        W61265   1.961  11.800   0.272  0.1135 -0.0111 -0.4757
    1W        W61266  21.535  29.271   2.126 -0.1249  0.0037  0.0061
    1W        W61267  12.396  20.152   5.208 -0.2293  0.2297 -0.4039
    1W        W61268   1.783  22.352   9.039  0.0975  0.1323  0.0432
    1W        W61269  11.874  11.831   8.783 -0.2974  0.0810  0.2705
    1W        W61270   7.492   4.904   1.132  0.0758  0.1741 -0.1216
    1W        W61271  15.397  24.204   8.284  0.1205 -0.0103 -0.0306
    1W        W61272   6.865  24.167   7.849 -0.0026  0.1762 -0.0430
    1W        W61273  11.018  24.637   5.963  0.2381  0.0881 -0.1903
    1W        W61274   8.322  12.428   2.066 -0.1903  0.0579  0.2901
    1W        W61275   8.429  16.187   7.629 -0.1924 -0.3189  0.1250
    1W        W61276  27.272   3.209   7.424  0.2765  0.1551 -0.2947
    1W        W61277  24.794   1.735   8.350  0.2044 -0.0666  0.1177
    1W        W61278  28.680   0.261   8.020  0.2027  0.0774  0.0486
    1W        W61279   7.621  24.039   6.179  0.0304  0.2403  0.0708
    1W        W61280   3.753   7.271   6.752  0.1038  0.1526 -0.2006
    1W        W61281  14.989  14.509   7.716  0.0367  0.0662  0.5071
    1W        W61282  12.285  16.124   7.595  0.2109 -0.2733  0.0763
    1W        W61283   3.373   0.417   0.492 -0.1716 -0.0102  0.1568
    1W        W61284  27.211  25.805   7.269 -0.0474 -0.0674 -0.0007
    1W        W61285  28.611   0.935   1.548 -0.1410 -0.0372 -0.2663
    1W        W61286   3.921  19.553   7.266 -0.1207  0.2988  0.2371
    1W        W61287  17.992  11.684   7.064  0.1823 -0.1220 -0.1298
    1W        W61288  19.501  27.501   0.030 -0.2226 -0.1754 -0.0598
    1W        W61289  17.158   3.168   7.340 -0.0630  0.4848 -0.0080
    1W        W61290  23.639  10.475   8.181 -0.2841 -0.2191 -0.0414
    1W        W61291  15.043  19.120   0.207 -0.1597 -0.1139 -0.0549
    1W        W61292  27.573  24.244   0.584 -0.0792  0.1195  0.0326
    1W        W61293  14.144  25.571   1.742  0.0575 -0.4159 -0.3510
    1W        W61294   3.626   7.648   2.540 -0.0482  0.1915 -0.2253
    1W        W61295  29.556  30.209   8.171 -0.0723 -0.1195 -0.0904
    1W        W61296  11.749  25.680   8.460  0.0925 -0.0267 -0.2889
    1W        W61297  28.191  22.418   1.791  0.2317  0.0452  0.0378
    1W        W61298  23.445  22.766   2.000  0.0270  0.2144  0.2253
    1W        W61299  24.237   2.985   9.002 -0.1271 -0.1651  0.0842
    1W        W61300   9.839  12.682   7.926  0.3706  0.2391 -0.2573
    1W        W61301  27.939   9.450   9.062  0.1417 -0.2630 -0.2207
    1W        W61302  23.624   3.713   7.610 -0.1919  0.1954  0.3219
    1W        W61303  25.217   4.900   6.764  0.1153 -0.1816  0.2219
    1W        W61304  19.690  12.899   0.997  0.0524  0.2487  0.3719
    1W        W61305  13.502  19.341   8.168  0.0103  0.2487  0.1078
    1W        W61306  24.389  21.039   6.660  0.0607  0.0071 -0.3142
    1W        W61307  11.109   0.676   6.512  0.3349  0.3975 -0.3327
    1W        W61308   1.176  17.460   0.207 -0.1526  0.0923  0.0194
    1W        W61309  11.094  13.394   3.330 -0.0629 -0.3264 -0.1067
    1W        W61310  25.530  22.679   8.692  0.2565  0.3321 -0.1852
    1W        W61311  28.250  18.920   9.173 -0.0439  0.0999  0.3128
    1W        W61312  21.775  10.223   1.300 -0.1235 -0.3075 -0.0127
    1W        W61313  18.579  29.277   2.584 -0.3822 -0.2151 -0.0147
    1W        W61314  23.237   2.235   1.992  0.0861  0.3320 -0.1307
    1W        W61315  13.522  21.905   6.339 -0.0272  0.0611  0.0785
    1W        W61316   7.513  29.965   0.671 -0.2166 -0.3150 -0.0865
    1W        W61317  19.273   9.649   2.645 -0.0235 -0.2399 -0.1021
    1W        W61318  10.306  16.429   6.759 -0.1933  0.0683  0.0464
    1W        W61319   8.288  12.695   0.812  0.2645 -0.0458 -0.2147
    1W        W61320   8.794  21.006   8.730 -0.0942 -0.3161  0.3523
    1W        W61321  12.540  24.164   0.325  0.1564  0.2771 -0.0864
    1W        W61322  18.600   8.112   6.011  0.2009 -0.0017 -0.0058
    1W        W61323  24.562  26.432   8.270 -0.1252 -0.2195 -0.3162
    1W        W61324   5.892  18.711   7.982 -0.0648  0.0277 -0.0409
    1W        W61325  26.430   2.088   2.261  0.0373 -0.0811  0.0867
    1W        W61326  26.254   0.023   2.020 -0.0359 -0.0352 -0.3348
    1W        W61327   1.046  13.706   8.019  0.1596 -0.1352 -0.3371
    1W        W61328  19.160  17.657   8.316 -0.3882  0.0914 -0.3100
    1W        W61329  27.439  22.615   8.055 -0.2547 -0.0334 -0.2408
    1W        W61330  27.630   1.952   2.581 -0.1842  0.0150  0.0792
    1W        W61331  17.510   5.256   2.295  0.0620 -0.2304 -0.0969
    1W        W61332   5.813   8.305   1.193 -0.1211 -0.0977 -0.1735
    1W        W61333  19.760  12.374   9.172 -0.0222  0.1334  0.3025
    1W        W61334  11.666  25.747   2.951  0.1799  0.0365  0.0813
    1W        W61335  23.825   7.312   1.803  0.1135 -0.4025 -0.0810
    1W        W61336  22.389   8.027   8.812 -0.1270  0.2832 -0.2605
    1W        W61337  13.365   7.869   2.322 -0.1582  0.0029 -0.0543
    1W        W61338  13.365  12.466   1.959  0.2806  0.0311  0.0374
    1W        W61339  16.006   1.165   1.110  0.0754 -0.1816 -0.0890
    1W        W61340  12.412  30.146   7.152 -0.0797  0.0159 -0.1422
    1W        W61341   6.947  25.023   7.159 -0.3095  0.0171  0.1443
    1W        W61342  14.221  20.609   7.410  0.0489 -0.1283  0.2070
    1W        W61343  12.248  16.181   2.243 -0.1330  0.2770 -0.1730
    1W        W61344  28.350  27.473   3.593 -0.1904 -0.4616  0.0514
    1W        W61345  18.190  18.230   7.114  0.1108  0.0390  0.0037
    1W        W61346  30.058  15.853   0.478 -0.1093  0.1257 -0.0575
    1W        W61347  19.071  17.735   0.677  0.1055  0.1091  0.1726
    1W        W61348   5.409  17.002   7.755  0.2791 -0.0291 -0.0361
    1W        W61349  10.472  25.155   0.244  0.2128  0.0389  0.0414
    1W        W61350   0.561  12.383   9.231 -0.1500  0.1518 -0.0518
    1W        W61351   4.530  28.989   1.014  0.0637  0.3958  0.1502
    1W        W61352   4.340  20.153   7.483  0.3233 -0.2260  0.0616
    1W        W61353  21.361  11.045   0.158  0.1206 -0.1028 -0.0018
    1W        W61354   5.865   9.793   8.458 -0.0345  0.0495 -0.0074
    1W        W61355  16.729  14.565   2.759 -0.1935  0.4525  0.3487
    1W        W61356   9.776  23.458   0.299  0.1381  0.0459  0.3363
    1W        W61357  28.489  22.690   7.035  0.0404 -0.0063 -0.0164
    1W        W61358  15.032  23.537   2.165  0.2189 -0.2867  0.0196
    1W        W61359  20.153  21.767   7.014  0.1283 -0.0063  0.2712
    1W        W61360  29.688   2.174   0.476  0.1726  0.2176 -0.2599
    1W        W61361  22.434  22.261   6.239  0.1061 -0.0455 -0.0982
    1W        W61362  28.589  27.367   0.402 -0.0957  0.4073 -0.0694
    1W        W61363  12.263  27.292   1.559  0.1523  0.0037  0.0137
    1W        W61364  25.605   4.003   3.560  0.1634 -0.1641 -0.1771
    1W        W61365   3.719  25.059   1.878  0.1492 -0.3573  0.1900
    1W        W61366  22.186  27.032   8.242 -0.4319  0.2651 -0.3320
    1W        W61367   0.634  26.324   7.395 -0.2477  0.0236  0.2148
    1W        W61368   6.614   6.038   8.478  0.1544 -0.4525  0.2088
    1W        W61369  22.781  29.174   3.404 -0.2016 -0.2065  0.0738
    1W        W61370   2.786  10.106   1.851  0.0694 -0.0686  0.0960
    1W        W61371  24.153  25.946   1.990  0.0437 -0.1296  0.0799
    1W        W61372  14.966  14.858   2.400  0.4163  0.0030 -0.1493
    1W        W61373   5.644  19.269   0.853  0.1331 -0.1694  0.0324
    1W        W61374   1.875  27.381   1.878  0.3619  0.5582 -0.1359
    1W        W61375  29.314   4.686   1.837 -0.0611  0.1441 -0.1487
    1W        W61376  21.105  29.427   8.933  0.0298  0.0576 -0.0770
    1W        W61377  10.445  28.239   1.361  0.0759 -0.0076 -0.2284
    1W        W61378  13.232  19.359   1.038  0.0320  0.4717 -0.1912
    1W        W61379  22.261   0.506   2.147  0.0460 -0.0300 -0.0860
    1W        W61380  11.826  18.838   8.929 -0.1190  0.3522  0.1186
    1W        W61381  22.432  17.235   0.947  0.1587 -0.0061 -0.2046
    1W        W61382  15.521   9.934   0.144  0.1280 -0.2286 -0.0544
    1W        W61383  12.896   6.479   0.632  0.0352 -0.1569  0.0069
    1W        W61384  13.393  12.328   0.738  0.2373 -0.1290 -0.2674
    1W        W61385  25.704  13.463   0.985 -0.0883 -0.1250  0.2062
    1W        W61386  26.061  10.537   0.728  0.2226 -0.0280 -0.1104
    1W        W61387  21.938  20.650   7.885  0.1223  0.0942 -0.0742
    1W        W61388  17.148  17.452   0.139  0.1898  0.0429  0.3114
    1W        W61389  17.629   8.251   6.387 -0.1535 -0.3488  0.2357
    1W        W61390  11.335   6.060   1.207 -0.0296 -0.3199  0.3368
    1W        W61391  24.727  15.781   0.076 -0.2874  0.0007  0.0880
    1W        W61392  15.948  22.232   7.001  0.1145  0.2716 -0.0061
    1W        W61393   1.518  18.299   6.185  0.3721  0.2137  0.0504
    1W        W61394   0.833   3.656   8.534 -0.3119  0.2692 -0.4059
    1W        W61395  13.342  27.421   7.172 -0.0341  0.1153  0.2184
    1W        W61396   3.377  29.434   1.464 -0.1067  0.1177  0.2934
    1W        W61397  20.993  22.385   2.326  0.0312 -0.1113 -0.2745
    1W        W61398  17.750  26.143   7.428  0.0962  0.1167 -0.1014
    1W        W61399  24.237  26.732   6.940 -0.2449  0.1292 -0.3016
    1W        W61400   2.521  13.622   0.365 -0.1274 -0.1442 -0.0581
    1W        W61401   9.662   0.041   2.697  0.0930 -0.0310 -0.1140
    1W        W61402  19.729   5.334   0.422  0.0458 -0.1061 -0.2007
    1W        W61403  23.990  21.692   0.060  0.2758  0.1321  0.0652
    1W        W61404   8.421   8.695   0.299  0.0322  0.1316  0.1842
    1W        W61405   4.927  10.167   8.323 -0.0567  0.1090 -0.3507
    1W        W61406  29.517  25.062   7.265  0.0326  0.1902  0.5276
    1W        W61407   4.575  13.189   1.904 -0.3142 -0.1492 -0.0538
    1W        W61408   4.933   3.231   1.992  0.0968 -0.1465 -0.1966
    1W        W61409   7.128  25.236   0.874  0.0115  0.1898  0.2209
    1W        W61410  10.579   3.678   1.789  0.0114  0.1419  0.0378
    1W        W61411  17.778  17.612   2.060  0.2140  0.0666 -0.1112
    1W        W61412  16.535  19.315   0.161  0.2233  0.0300 -0.0321
    1W        W61413   8.031  13.891   9.091 -0.3940 -0.1304 -0.1160
    1W        W61414   4.870  16.742   8.879 -0.0509  0.2223  0.0308
    1W        W61415  12.269  26.192   6.868 -0.0282  0.1969  0.2542
    1W        W61416   9.612   9.807   6.277  0.0301 -0.1278  0.2024
    1W        W61417   2.353   9.095   8.713 -0.0026  0.0787  0.0053
    1W        W61418  27.721   5.360   3.472 -0.1177 -0.1668 -0.4275
    1W        W61419  22.842   4.246   7.173 -0.3312 -0.0038  0.3113
    1W        W61420  10.178  16.745   9.107 -0.0670  0.0345  0.0696
    1W        W61421   4.719   1.033   0.651 -0.3182  0.1715  0.1572
    1W        W61422  19.278  23.689   0.589 -0.2079 -0.1247  0.1679
    1W        W61423  20.008  29.090   2.586 -0.1344 -0.0651 -0.0900
    1W        W61424   4.392   2.890   0.336  0.0862 -0.1326 -0.1659
    1W        W61425  20.639  20.474   0.686  0.1441  0.1052  0.0746
    1W        W61426  17.347   8.280   9.261 -0.0431  0.1070 -0.0490
    1W        W61427  18.300  27.911   1.175  0.1834  0.0947  0.0684
    1W        W61428  18.949  25.784   6.723  0.0115 -0.0843  0.1643
    1W        W61429  15.704   1.534   2.859 -0.0661 -0.1608  0.1041
    1W        W61430   6.016  29.696   8.076  0.0340 -0.1464  0.1140
    1W        W61431  13.172  29.376   8.123  0.0383  0.1431  0.2601
    1W        W61432  14.122  21.333   0.784  0.0421 -0.1718  0.0557
    1W        W61433   1.685   0.954   0.506 -0.1274 -0.0134 -0.0394
    1W        W61434  10.106  10.839   2.218 -0.1094  0.0480 -0.1059
    1W        W61435   8.761  24.381   7.587  0.2205 -0.0519  0.0439
    1W        W61436   2.848  22.185   7.004  0.2780 -0.0765 -0.0957
    1W        W61437  16.133  16.812   5.970  0.1581 -0.2102  0.1915
    1W        W61438   8.476  23.732   6.627  0.0206  0.2069 -0.0083
    1W        W61439  25.492  23.023   6.762  0.0854  0.0756 -0.1381
    1W        W61440   9.091  16.402   8.034 -0.2015 -0.2365 -0.1579
    1W        W61441  28.530  29.590   0.368  0.2068 -0.1219 -0.2304
    1W        W61442  29.429   2.614   0.765  0.1730 -0.0267 -0.0081
    1W        W61443  10.828  13.695   7.544  0.2741 -0.2088 -0.1301
    1W        W61444  26.061   4.342   3.478 -0.1612 -0.0070  0.1572
    1W        W61445   0.358  18.186   0.594 -0.1040 -0.0793 -0.2833
    1W        W61446  19.362  14.326   1.389  0.0635  0.0262 -0.1177
    1W        W61447  22.140  28.508   7.762  0.2435 -0.4835  0.1295
    1W        W61448  29.594  28.374   2.993 -0.0581 -0.1237  0.0421
    1W        W61449  25.210   0.786   0.753  0.1682 -0.0874  0.0014
    1W        W61450   9.558  26.793   9.249 -0.0194  0.2151 -0.1322
    1W        W61451  12.251  27.796   1.732  0.2239 -0.3114 -0.0886
    1W        W61452  16.496   9.797   7.336  0.2514  0.0720  0.2807
    1W        W61453  10.355   7.416   0.550  0.0456 -0.1940  0.1604
    1W        W61454  13.049  26.652   7.105 -0.1038  0.2902  0.0777
    1W        W61455  14.757   9.546   2.536  0.1728  0.1958  0.1365
    1W        W61456  29.228  17.882   8.129  0.0588  0.1399 -0.0597
    1W        W61457   9.604   9.733   7.941  0.1128 -0.1192  0.0052
    1W        W61458  20.455  22.768   0.999 -0.1962  0.0225  0.4174
    1W        W61459  16.397  19.257   8.807 -0.2075  0.0738 -0.4067
    1W        W61460  12.892   6.358   0.049  0.1148  0.0483 -0.1643
    1W        W61461   3.714  20.459   1.366  0.3060  0.0855 -0.0978
    1W        W61462  19.729  25.892   2.228 -0.1019  0.0523 -0.0551
    1W        W61463  10.717  22.075   8.620  0.1231  0.2032 -0.1457
    1W        W61464  13.621  24.505   8.672 -0.1450  0.0807 -0.0206
    1W        W61465   0.706   6.241   2.462  0.0374  0.0282 -0.1069
    1W        W61466   5.623   5.247   0.449 -0.0659 -0.1930 -0.0240
    1W        W61467   7.378   6.890   8.763 -0.0392  0.2070 -0.3360
    1W        W61468  19.230  30.082   7.386  0.2381  0.0222 -0.1515
    1W        W61469  22.302  22.491   0.736  0.1234  0.1646 -0.2524
    1W        W61470  26.518  28.372   1.142 -0.1790 -0.1966  0.0304
    1W        W61471  10.543  28.558   9.104  0.0381  0.2759  0.0387
    1W        W61472  22.990  11.121   0.342 -0.0476 -0.0564 -0.1657
    1W        W61473  29.167   5.800   7.023 -0.1220 -0.0452 -0.1725
    1W        W61474  28.599   1.283   0.596  0.0923 -0.0870 -0.0426
    1W        W61475  13.268  13.874   3.462  0.1315  0.0810  0.2685
    1W        W61476  26.495  27.104   2.556  0.0447  0.2364  0.0069
    1W        W61477   4.344   7.536   0.491 -0.2145 -0.1340 -0.3247
    1W        W61478  15.888  13.696   1.420 -0.0475  0.0453  0.0395
    1W        W61479   6.899   3.617   2.050 -0.3314 -0.2483 -0.3038
    1W        W61480  23.997  21.202   8.250 -0.2853 -0.3438  0.0548
    1W        W61481  16.644  28.610   0.347  0.1068 -0.2083  0.1986
    1W        W61482  29.478  28.225   9.049  0.1249 -0.2724 -0.2442
    1W        W61483  11.407  25.489   1.877  0.1147 -0.3913 -0.0215
    1W        W61484  13.196  26.644   1.727 -0.0686  0.1092 -0.0134
    1W        W61485  29.437  18.725   8.253  0.0354  0.1631 -0.0352
    1W        W61486  21.103  12.173   8.696 -0.2160  0.1657 -0.1633
    1W        W61487   1.088  29.712   2.983 -0.2539 -0.2959 -0.2127
    1W        W61488  15.399  12.420   8.063  0.0574  0.2057  0.0643
    1W        W61489  27.686  16.726   1.459 -0.0302  0.1425  0.0613
    1W        W61490  24.500  12.769   5.594 -0.0123 -0.0232 -0.2152
    1W        W61491   4.123  12.182   7.063  0.4247  0.0756 -0.0602
    1W        W61492  25.359  21.174   0.250 -0.3136 -0.1818  0.1569
    1W        W61493  22.477   5.839   2.951  0.1534  0.1389 -0.0922
    1W        W61494   5.649   4.256   8.175 -0.2032 -0.0461  0.0640
    1W        W61495   2.721   9.359   8.002  0.1127  0.2014 -0.1666
    1W        W61496  25.243  10.804   8.831 -0.2634  0.0545  0.1009
    1W        W61497   2.759   5.479   8.116  0.3739  0.2578 -0.1494
    1W        W61498  30.324   1.819   0.077  0.0393 -0.0477  0.0995
    1W        W61499  24.743  24.421   7.693  0.1141  0.1326  0.2048
    1W        W61500   5.712  14.246   6.088  0.0406 -0.1206 -0.2515
    1W        W61501   7.538   1.694   7.742 -0.3023 -0.1852  0.2184
    1W        W61502  10.664  15.168   1.754  0.3029 -0.1544 -0.1552
    1W        W61503  11.027   5.946   7.750  0.0213  0.0750 -0.1713
    1W        W61504  21.942   7.724   7.016  0.1258  0.1232 -0.3405
    1W        W61505   9.093  26.673   2.014 -0.2187 -0.3325  0.2902
    1W        W61506   8.526   1.744   2.693 -0.0406  0.1102 -0.1922
    1W        W61507  24.723  21.265   7.218 -0.1475 -0.0042 -0.0227
    1W        W61508  22.432  28.056   1.266 -0.1056 -0.0821 -0.0407
    1W        W61509  28.876   6.283   0.541  0.1927  0.0321  0.1551
    1W        W61510  25.112  25.936   3.373 -0.0046  0.3119  0.0074
    1W        W61511  18.143  10.416   9.004  0.0381 -0.0647  0.1290
    1W        W61512  19.361   8.020   0.575  0.1355 -0.0783  0.1999
    1W        W61513  29.865   1.944   3.230  0.0436  0.4820 -0.0144
    1W        W61514  25.193  10.273   1.215 -0.1510  0.0580 -0.1821
    1W        W61515  10.699   8.879   1.242  0.0450  0.0082  0.0688
    1W        W61516  24.631  23.463   6.519  0.1473  0.0340 -0.0071
    1W        W61517  29.837  10.310   0.233 -0.2187  0.0648 -0.0380
    1W        W61518  24.822  28.455   2.780 -0.1221  0.1788 -0.0683
    1W        W61519   3.274  27.589   6.693  0.2854  0.1235 -0.0879
    1W        W61520  24.220  24.719   1.880 -0.1730 -0.2116  0.2156
    1W        W61521   1.113   2.228   2.688 -0.0049  0.2227 -0.2134
    1W        W61522   3.937   7.738   6.999  0.0482  0.0687 -0.0532
    1W        W61523   0.119  25.233   2.868  0.3608  0.1991  0.0937
    1W        W61524  25.752  30.108   0.319  0.1013 -0.2776 -0.0627
    1W        W61525   6.246  24.839   0.226 -0.0129 -0.3837 -0.1496
    1W        W61526  21.530   3.707   2.859  0.0328  0.5059 -0.2922
    1W        W61527   7.273  12.774   7.742  0.2174 -0.2261 -0.2160
    1W        W61528   9.596   4.652   2.101 -0.0531  0.1300  0.2442
    1W        W61529  29.660   0.941   7.383  0.3783 -0.2910 -0.3920
    1W        W61530  25.253   3.145   2.152  0.0661 -0.4271 -0.1404
    1W        W61531   0.870  20.975   0.261 -0.0097 -0.2132 -0.1501
    1W        W61532   0.336  10.703   7.577  0.0602 -0.5243 -0.1494
    1W        W61533  19.088  23.310   7.490  0.2323  0.0421 -0.0436
    1W        W61534   6.301  20.343   6.230 -0.0755  0.3510 -0.0547
    1W        W61535  11.782   6.515   6.723 -0.1276 -0.2390 -0.0923
    1W        W61536   6.423   9.649   0.246 -0.0467  0.0311 -0.2982
    1W        W61537   4.622   6.830   2.259 -0.1669  0.0966 -0.1094
    1W        W61538  19.395  27.132   7.661  0.4329 -0.2504  0.0016
    1W        W61539  11.077   9.595   1.826  0.1603  0.2965  0.0826
    1W        W61540   5.793  23.834   0.438  0.3010 -0.0374 -0.1382
    1W        W61541  14.098  24.228   8.911 -0.0318  0.1092 -0.3796
    1W        W61542  10.422  24.870   7.387  0.2213 -0.0708  0.0096
    1W        W61543   1.182  14.166   0.998  0.1136 -0.0378 -0.2597
    1W        W61544   3.384   9.104   8.636 -0.1602  0.2866  0.0527
    1W        W61545  30.239  25.582   8.552  0.0123 -0.2602 -0.0593
    1W        W61546   9.402  23.815   0.325  0.0930 -0.6175 -0.3417
    1W        W61547  12.686  25.455   8.710 -0.1038  0.2254  0.0722
    1W        W61548  23.233   0.400   1.872 -0.0027  0.0614  0.1608
    1W        W61549   2.617  10.097   8.619 -0.0369  0.0383  0.2385
    1W        W61550   7.563  18.525   9.035 -0.1584 -0.0481  0.0589
    1W        W61551  21.286   9.158   2.093  0.0401 -0.3127 -0.0529
    1W        W61552  18.023   3.375   7.595 -0.0963  0.2069 -0.1914
    1W        W61553   6.100  15.530   7.319 -0.0825 -0.2510 -0.0709
    1W        W61554   5.406   3.801   1.899 -0.0133 -0.2018  0.0909
    1W        W61555  14.779  15.923   0.247  0.1266 -0.2292  0.4948
    1W        W61556  21.273   0.805   2.521 -0.0067  0.0347 -0.2204
    1W        W61557  23.102  19.059   6.021  0.3522  0.2719 -0.0669
    1W        W61558  19.928  13.275   1.281  0.3094  0.0284  0.1226
    1W        W61559   9.906  21.335   2.317 -0.0158  0.1091 -0.1398
    1W        W61560   9.991  17.646   7.140  0.1868  0.0868  0.0092
    1W        W61561  24.789  23.169   0.070 -0.1975 -0.0617  0.2344
    1W        W61562   9.966  23.024   8.206 -0.2774  0.1614 -0.1187
    1W        W61563   9.985   1.693   0.459  0.0279  0.0372  0.4789
    1W        W61564  16.444  11.936   1.526 -0.2733 -0.0873 -0.0022
    1W        W61565  19.592   7.322   6.425  0.0429  0.2590  0.3227
    1W        W61566  25.375  27.931   8.804  0.4719 -0.0774  0.1017
    1W        W61567  22.867  22.882   7.572 -0.1575  0.1279  0.1699
    1W        W61568   8.269   6.167   1.837 -0.2382 -0.0402 -0.1355
    1W        W61569   7.165   2.890   0.047  0.0257  0.1073  0.3093
    1W        W61570   7.693  14.774   1.207 -0.0695  0.0572  0.1276
    1W        W61571   9.372  26.348   0.803  0.1859 -0.0435  0.0850
    1W        W61572   1.228   5.133   2.259 -0.0324  0.0049 -0.0136
    1W        W61573  15.088  11.557   1.601  0.2876 -0.1730 -0.2744
    1W        W61574  12.622  14.827   2.009 -0.3090  0.1832  0.0121
    1W        W61575  17.980  26.772   8.179  0.0071  0.0153  0.5294
    1W        W61576  22.122  15.815   1.812 -0.0912 -0.1843  0.0035
    1W        W61577  20.386  12.115   6.524  0.0114  0.1647 -0.2956
    1W        W61578  30.066   5.735   9.223  0.0320  0.0924 -0.1357
    1W        W61579  22.457  19.173   1.654  0.3252 -0.1480  0.1660
    1W        W61580   4.315  23.944   1.560 -0.0946 -0.1885 -0.2118
    1W        W61581   2.194   3.857   0.875 -0.2384 -0.0273  0.0230
    1W        W61582   2.677  23.801   6.997  0.2836 -0.2200 -0.1536
    1W        W61583  26.406   6.996   0.525 -0.0437  0.0576 -0.0719
    1W        W61584   9.424  21.411   1.108  0.2165 -0.0186 -0.2543
    1W        W61585  20.613   8.253   6.256  0.0755  0.3493  0.0427
    1W        W61586  20.091  29.727   9.246 -0.0122  0.2613  0.0703
    1W        W61587  28.140   1.742   3.039 -0.0641 -0.1621  0.4463
    1W        W61588  29.525  21.200   8.415 -0.1460  0.2338  0.0643
    1W        W61589   6.200  20.873   8.115 -0.1381 -0.1423  0.1624
    1W        W61590   4.022   1.826   8.792  0.0168 -0.0950  0.1279
    1W        W61591  29.600   1.838   8.654 -0.0331  0.1140  0.1374
    1W        W61592  17.104  17.101   2.059 -0.0072 -0.1473  0.1433
    1W        W61593  21.793  11.529   2.554  0.1615  0.2383  0.1272
    1W        W61594  29.795  17.213   1.500 -0.1500  0.1675 -0.2262
    1W        W61595  26.091   4.127   1.404  0.0226  0.0763 -0.0449
    1W        W61596   7.529   2.638   2.752 -0.0928  0.1738 -0.2648
    1W        W61597  16.820  30.204   9.147 -0.1665  0.3452 -0.2498
    1W        W61598  12.734  23.171   2.777 -0.1731  0.1683  0.1568
    1W        W61599   8.311  14.588   9.128 -0.0914  0.2837  0.1155
    1W        W61600  13.217  18.833   9.247 -0.2022  0.0786  0.1765
    1W        W61601  18.524  11.161   8.135 -0.1790  0.0138 -0.0333
    1W        W61602  22.749  26.355   0.337 -0.2075 -0.0484 -0.0668
    1W        W61603  26.450  29.784   8.606 -0.0448 -0.3761  0.0143
    1W        W61604   0.800  27.337   1.256  0.1723  0.0457 -0.0764
    1W        W61605   8.431  18.619   6.312 -0.0299  0.0841 -0.0283
    1W        W61606   4.550  11.024   8.905  0.0719  0.0679 -0.0731
    1W        W61607  27.413  16.886   1.910 -0.0826  0.0222  0.2246
    1W        W61608  23.871   1.132   9.220 -0.1199  0.0674  0.2284
    1W        W61609  13.136  24.410   7.283 -0.2169 -0.2578 -0.1032
    1W        W61610   0.412  29.903   8.728  0.0466 -0.2315  0.1885
    1W        W61611  26.564   3.032   1.771 -0.1963  0.1578 -0.0996
    1W        W61612   1.844   2.513   3.213  0.2704 -0.1677 -0.0781
    1W        W61613  14.866  10.686   0.633  0.1969 -0.1426  0.1586
    1W        W61614  27.343   3.627   8.770 -0.0462 -0.0632 -0.0709
    1W        W61615   5.875  29.893   3.455 -0.4302  0.1235  0.0435
    1W        W61616  13.194   4.026   2.751 -0.1635  0.0731 -0.0634
    1W        W61617  15.467  21.515   2.491 -0.2405 -0.0205  0.0849
    1W        W61618  23.829  27.626   1.351  0.4815 -0.2309  0.1921
    1W        W61619   4.666  28.893   8.246  0.2047 -0.0277 -0.0115
    1W        W61620   1.863  13.410   2.435  0.1470  0.0575  0.0005
    1W        W61621  20.135  17.042   1.170 -0.0885 -0.0145  0.0812
    1W        W61622  19.045   7.995   7.908 -0.3962  0.0224  0.3028
    1W        W61623  14.625  12.767   7.926 -0.3483  0.1844 -0.1186
    1W        W61624  22.692   4.368   6.655  0.2512  0.0126  0.1611
    1W        W61625   1.963   9.275   0.719  0.2667 -0.2297 -0.0169
    1W        W61626  25.090   6.033   1.160 -0.1273 -0.0085 -0.1063
    1W        W61627  18.053   0.115   2.785  0.1528 -0.0851  0.2927
    1W        W61628   9.509  23.136   8.241  0.1125 -0.1623  0.0312
    1W        W61629  20.780   6.406   0.184  0.3103  0.1889 -0.4432
    1W        W61630   4.024  23.843   8.840 -0.0589  0.0825  0.1148
    1W        W61631  25.964  28.328   8.192 -0.1021 -0.0878 -0.2123
    1W        W61632  16.225   9.722   1.673  0.5183 -0.0934 -0.1781
    1W        W61633   1.463  22.542   0.059  0.0617 -0.2278  0.0151
    1W        W61634   6.425  23.801   8.745 -0.1133 -0.0743 -0.0380
    1W        W61635  13.784  19.924   1.252 -0.2306  0.0835  0.6725
    1W        W61636  19.619  23.350   2.185  0.0997  0.1404  0.2549
    1W        W61637  16.386   7.320   0.035  0.0009  0.0035  0.3883
    1W        W61638  22.475  16.994   1.441 -0.2528  0.1107 -0.0167
    1W        W61639  23.649  11.839   8.034 -0.1180 -0.0940 -0.0590
    1W        W61640  29.369   1.778   0.667  0.0810 -0.1651  0.2445
    1W        W61641  11.056  17.100   7.099 -0.0158 -0.0346  0.0337
    1W        W61642  14.554  18.666   1.223  0.1067 -0.1882 -0.3872
    1W        W61643   6.121  25.204   9.117  0.2704  0.1880 -0.0909
    1W        W61644  10.333  28.386   8.350 -0.0780 -0.1248 -0.2146
    1W        W61645  25.350  29.643   2.537  0.1198 -0.0750  0.0159
    1W        W61646  16.683  22.012   2.791  0.1008 -0.0534 -0.0238
    1W        W61647  10.341  25.654   7.908  0.2327 -0.0094  0.0736
    1W        W61648  19.574   2.295   7.635  0.0501 -0.1090 -0.0439
    1W        W61649   1.104  25.836   9.089 -0.3145 -0.2894  0.1650
    1W        W61650   8.487  29.562   0.656  0.1330 -0.1510 -0.0319
    1W        W61651  29.693  16.828   7.174 -0.0436 -0.0150 -0.0610
    1W        W61652  10.501   3.872   3.154 -0.1688  0.0768  0.1282
    1W        W61653   4.963  11.994   7.167  0.3194 -0.2073  0.1128
    1W        W61654   3.175  17.604   8.998  0.1177 -0.3195 -0.3824
    1W        W61655  15.002  27.325   9.059 -0.3974  0.1363  0.2419
    1W        W61656  17.814   8.574   1.406 -0.2047  0.1301  0.3880
    1W        W61657  25.398  29.041   3.426 -0.1868  0.0484 -0.0700
    1W        W61658  22.470   9.192   0.166  0.2276  0.2119 -0.1354
    1W        W61659  29.201  18.610   8.898 -0.2117 -0.3087  0.3525
    1W        W61660   1.130  30.261   2.876  0.0150  0.0902  0.2854
    1W        W61661  13.113  10.344   8.626  0.1006 -0.0750 -0.0498
    1W        W61662  21.081   3.793   2.262 -0.1354  0.0163 -0.1401
    1W        W61663  13.281   9.982   0.757  0.4377 -0.1196  0.0537
    1W        W61664  25.575  13.201   1.485  0.1904 -0.2974 -0.1472
    1W        W61665  19.661  23.187   6.536  0.1326  0.0331 -0.0935
    1W        W61666  10.422  22.065   8.216 -0.2703  0.1415  0.0793
    1W        W61667   8.049  19.255   7.020 -0.0941 -0.2469  0.1316
    1W        W61668  25.716   5.003   0.046  0.0445  0.6200 -0.1757
    1W        W61669  10.376  12.563   7.760  0.2841 -0.0324 -0.1140
    1W        W61670  27.901   6.455   2.012  0.1913 -0.1003  0.0067
    1W        W61671  18.141   7.484   8.881 -0.0348  0.0815 -0.2200
    1W        W61672   6.912  14.368   2.119 -0.0832  0.1150 -0.3077
    1W        W61673  27.972  11.595   8.349 -0.3487 -0.4610  0.0533
    1W        W61674  23.668  18.001   8.952 -0.2112 -0.1286 -0.2860
    1W        W61675  18.393   2.070   2.112 -0.1891 -0.1963 -0.1712
    1W        W61676  17.290  12.935   9.034  0.1930 -0.3438  0.1116
    1W        W61677  25.726  21.253   6.658 -0.0242 -0.1796 -0.2373
    1W        W61678   5.121  12.228   2.004 -0.4431  0.0994 -0.0695
    1W        W61679  12.619  10.794   2.201  0.1735 -0.2489  0.3073
    1W        W61680   1.055  11.899   7.008 -0.0017  0.1576 -0.0509
    1W        W61681  17.125   7.813   8.174  0.0083  0.0310 -0.1818
    1W        W61682  10.060   9.762   0.068  0.4030  0.0186  0.0206
    1W        W61683  25.760   0.911   2.116  0.0873  0.2561  0.2755
    1W        W61684  26.750   9.663   6.632  0.1213  0.2367  0.0244
    1W        W61685  18.605  23.507   7.586  0.4845  0.1757  0.0624
    1W        W61686  15.924  27.701   6.788  0.2214 -0.2490  0.0480
    1W        W61687  27.398   6.021   2.336 -0.0682  0.0835  0.2418
    1W        W61688   7.405  11.654   0.911 -0.0335  0.2435  0.0881
    1W        W61689   2.000  23.792   1.969 -0.1672  0.0239 -0.0672
    1W        W61690  17.113  23.988   1.081 -0.2954 -0.1618  0.1532
    1W        W61691  22.351  14.957   1.811  0.0723  0.0121 -0.0558
    1W        W61692  17.087  18.140   1.334 -0.3423 -0.3273 -0.1184
    1W        W61693   8.041  10.038   2.250  0.0295  0.0044  0.2127
    1W        W61694  26.690  23.638   9.007  0.0410 -0.0669  0.0020
    1W        W61695  28.702  20.727   9.093  0.1629 -0.0457  0.0485
    1W        W61696   5.935  17.309   8.413 -0.1165  0.1181  0.0684
    1W        W61697  12.883   7.319   1.609  0.2081 -0.1488 -0.1012
    1W        W61698  20.796   9.303   5.803 -0.0279 -0.1750  0.2736
    1W        W61699  18.767  28.113   1.360 -0.1427  0.1857  0.1032
    1W        W61700  29.182  19.000   6.504  0.2732  0.0960  0.1973
    1W        W61701  20.737  18.453   1.933 -0.0107 -0.2777  0.0481
    1W        W61702  24.408  13.263   9.054  0.2330 -0.0683 -0.1209
    1W        W61703   6.544   8.075   1.637 -0.0679  0.0892 -0.2142
    1W        W61704  16.849   2.168   9.078 -0.2912  0.0512 -0.0445
    1W        W61705   6.180  23.865   0.112  0.1155 -0.2483  0.0677
    1W        W61706  21.738   7.347   0.073  0.1485 -0.2040  0.1803
    1W        W61707  17.195  19.109   6.063 -0.5427 -0.0241 -0.1599
    1W        W61708  14.472   7.875   8.882 -0.3168  0.0387 -0.0978
    1W        W61709   3.807  21.755   6.514 -0.1277  0.0963 -0.1220
    1W        W61710  27.487  28.966   7.898 -0.3336 -0.1572  0.0508
    1W        W61711   5.944  23.879   6.916 -0.1018 -0.0543  0.0478
    1W        W61712   5.768  24.824   9.263  0.0735 -0.1679 -0.0781
    1W        W61713   5.769  18.478   1.121 -0.3346  0.0048  0.0239
    1W        W61714  15.975   4.656   0.005 -0.1349 -0.0943  0.0264
    1W        W61715   2.716  25.556   7.552 -0.2804  0.0178 -0.2932
    1W        W61716  22.039   3.157   0.223 -0.0490  0.0765 -0.1496
    1W        W61717   9.166  19.824   6.452 -0.0581 -0.0256 -0.0425
    1W        W61718  20.075  17.878   1.723  0.2403 -0.1865  0.3735
    1W        W61719  24.877  27.336   0.905  0.0250  0.0792 -0.2516
    1W        W61720  21.098  12.339   8.133 -0.0752  0.1594 -0.0191
    1W        W61721  30.348  20.563   0.079  0.0664 -0.0076  0.1608
    1W        W61722  30.139  16.950   7.390  0.1291  0.1408  0.0873
    1W        W61723  30.120  18.886   6.562 -0.1981  0.0394 -0.3442
    1W        W61724  11.211  24.767   0.653 -0.2475  0.3489  0.1785
    1W        W61725  17.363  15.256   8.778  0.2329  0.4063 -0.0804
    1W        W61726  16.754   1.179   6.514  0.0590 -0.1027  0.0940
    1W        W61727  22.978   8.646   5.750 -0.1646  0.1125 -0.1544
    1W        W61728  10.864  23.923   6.057 -0.1541  0.0305 -0.0757
    1W        W61729  15.710  20.921   9.028  0.0353  0.4633 -0.3650
    1W        W61730   8.082  10.216   7.883  0.1263  0.0729 -0.0639
    1W        W61731   2.910  10.779   6.558  0.2261 -0.3267 -0.4078
    1W        W61732   3.803  22.059   7.873 -0.1427 -0.1080 -0.0642
    1W        W61733   8.713  11.357   8.016 -0.0824 -0.2000  0.3453
    1W        W61734   0.768  17.334   8.067 -0.0412 -0.1814  0.0040
    1W        W61735  30.348  20.187   6.940 -0.1396  0.0736 -0.1791
    1W        W61736  27.546  24.742   0.555  0.1187  0.0193 -0.0199
    1W        W61737  21.804   3.369   9.111 -0.0015 -0.0195  0.3723
    1W        W61738   9.571   5.999   0.106 -0.1010 -0.0819 -0.0707
    1W        W61739   3.752  28.359   2.162  0.2222 -0.0403  0.0004
    1W        W61740   0.555  22.846   1.660  0.2080 -0.1608 -0.1185
    1W        W61741  29.157   1.919   7.658 -0.0697  0.0557 -0.0899
    1W        W61742  23.493  25.278   0.252  0.1660  0.4769 -0.0133
    1W        W61743  10.822  29.134   6.881  0.2291 -0.7369  0.1213
    1W        W61744  18.662  18.739   1.558 -0.1226  0.2190 -0.1621
    1W        W61745  29.721  24.628   0.935 -0.2077 -0.2539 -0.0462
    1W        W61746   1.581  19.186   9.185 -0.0345 -0.3137  0.0296
    1W        W61747  29.446  28.795   0.424  0.0260  0.3550  0.0635
    1W        W61748  30.146   2.266   3.445 -0.0437  0.3284  0.1768
    1W        W61749   7.655   9.717   0.791  0.0680  0.3384  0.0946
    1W        W61750  23.291  17.145   6.266 -0.1097  0.2867  0.0158
    1W        W61751  27.225   7.933   7.724 -0.0674 -0.1208  0.0278
    1W        W61752  29.691  24.168   1.034  0.0557  0.1994  0.2782
    1W        W61753   9.767   6.341   8.469  0.1886 -0.3246  0.1975
    1W        W61754  24.797  15.750   6.527  0.1121  0.0976 -0.1056
    1W        W61755  21.972   8.520   6.138  0.1391  0.2418 -0.2043
    1W        W61756  18.329  26.282   8.216 -0.0604  0.0947 -0.1866
    1W        W61757  17.001  29.108   0.259 -0.2825  0.1589  0.0350
    1W        W61758  22.669   6.051   9.215  0.0417  0.3095 -0.1180
    1W        W61759  28.377   0.203   8.447  0.1411  0.1638  0.0607
    1W        W61760  21.425  27.975   0.164  0.1891 -0.2264 -0.2639
    1W        W61761   5.992   9.289   8.583 -0.0511 -0.1328  0.0308
    1W        W61762  18.750  13.906   0.405 -0.2013 -0.1046  0.0420
    1W        W61763  12.016  20.825   7.722 -0.1039 -0.2313 -0.0946
    1W        W61764  16.082  28.591   2.244 -0.0255 -0.1661  0.1084
    1W        W61765   7.402  23.111   8.013 -0.0524 -0.1826  0.0494
    1W        W61766  23.855   8.273   0.924  0.1776 -0.2361  0.0241
    1W        W61767  20.433  28.918   0.684  0.1121  0.1321  0.0260
    1W        W61768  16.235  14.010   9.186 -0.1390  0.0342 -0.1733
    1W        W61769  21.971  10.517   6.558 -0.0042  0.2034  0.3933
    1W        W61770   4.580  28.675   7.775  0.1392  0.2508 -0.0363
    1W        W61771  15.527  20.744   7.176  0.3893  0.3258 -0.2462
    1W        W61772  15.363  29.588   1.180  0.1016  0.0081  0.1825
    1W        W61773   4.513  27.428   1.437  0.0107  0.0606 -0.4926
    1W        W61774   6.823  23.743   0.925 -0.1153  0.1599  0.0031
    1W        W61775   9.924  23.338   1.847  0.0358 -0.1827 -0.1761
    1W        W61776  24.756  14.533   7.373  0.0755 -0.0780 -0.1460
    1W        W61777  11.640   4.919   7.244  0.1858  0.0262  0.2128
    1W        W61778  11.828   9.674   8.071  0.3264 -0.0047  0.2317
    1W        W61779  14.455   5.479   8.299 -0.0321 -0.1802  0.5572
    1W        W61780  15.084  25.967   3.177 -0.2255  0.1087  0.0318
    1W        W61781  20.255  23.546   1.318 -0.0659  0.1786  0.1243
    1W        W61782  22.140  16.093   7.056  0.1591  0.1260 -0.0275
    1W        W61783  11.471  26.701   7.442  0.1442  0.3085 -0.0755
    1W        W61784  15.782  22.860   2.526 -0.2626  0.0548 -0.0172
    1W        W61785  18.298  23.779   0.186  0.0360  0.0558 -0.1531
    1W        W61786   5.202  17.001   7.235  0.1278 -0.2307  0.0411
    1W        W61787  27.441  24.687   6.795 -0.0871  0.1258  0.3774
    1W        W61788   4.209  18.451   7.622  0.3609  0.0814 -0.0517
    1W        W61789  21.126  24.439   2.189  0.0922  0.1083 -0.2192
    1W        W61790   7.336  28.675   7.308 -0.1927 -0.5243  0.1207
    1W        W61791  29.322  18.080   6.668 -0.0660  0.1413  0.0455
    1W        W61792   3.910  20.818   7.985  0.2337 -0.1876  0.1547
    1W        W61793   7.132  10.241   7.063 -0.1029 -0.3560 -0.1605
    1W        W61794  27.267  26.916   2.346 -0.2192 -0.2338 -0.0515
    1W        W61795  10.477  12.324   6.621 -0.2924  0.0643 -0.1754
    1W        W61796  28.355  16.446   8.342 -0.0021  0.4399  0.3163
    1W        W61797  28.494  12.236   6.990  0.2370  0.0569 -0.1826
    1W        W61798  15.254   8.349   7.345  0.0905  0.0569 -0.2804
    1W        W61799  17.358  25.723   0.369 -0.1602  0.1777 -0.0439
    1W        W61800   8.340  29.765   6.665 -0.1379 -0.0806  0.0333
    1W        W61801   9.456   7.497   7.404  0.0070 -0.2732  0.0164
    1W        W61802   7.930  18.681   8.705 -0.2431  0.1332 -0.1922
    1W        W61803  21.624  15.081   9.255  0.4420 -0.0040  0.0826
    1W        W61804  30.234   5.728   2.332  0.2770  0.0741 -0.1647
    1W        W61805   4.867  30.165   8.706  0.0610  0.2018 -0.1600
    1W        W61806  18.003  25.358   1.850  0.0132 -0.1029 -0.1792
    1W        W61807  22.056   0.482   6.595  0.0144  0.1037 -0.1928
    1W        W61808   7.376  11.000   8.931  0.4780  0.1090 -0.1207
    1W        W61809  13.248  15.968   0.727  0.1159 -0.0545 -0.2551
    1W        W61810  20.749  12.127   0.960 -0.0851  0.0792  0.0235
    1W        W61811  27.808  24.563   1.386 -0.0064 -0.2064  0.1801
    1W        W61812   8.703   2.657   1.946  0.1588 -0.0213 -0.0833
    1W        W61813   3.614  14.866   8.485  0.0759  0.1104  0.0091
    1W        W61814   8.871   4.264   6.601  0.0532 -0.4710  0.4351
    1W        W61815   1.909   2.977   1.436 -0.0505  0.0810  0.0606
    1W        W61816  13.475   1.772   2.163 -0.0824  0.1158  0.2072
    1W        W61817  20.657  29.578   8.814 -0.0415  0.2441  0.1273
    1W        W61818   0.566  10.825   2.563  0.1243  0.1040  0.1040
    1W        W61819  20.084  22.121   7.334 -0.4224 -0.3168 -0.1923
    1W        W61820   2.007   5.076   8.550 -0.0837 -0.1630 -0.2010
    1W        W61821  16.837   7.470   9.194  0.3100  0.0136  0.0358
    1W        W61822  26.994  14.174   8.905 -0.2865  0.0089  0.2279
    1W        W61823  12.414  10.531   8.969  0.0921 -0.1079  0.2885
    1W        W61824   9.450  17.803   7.101  0.0906  0.2160 -0.4343
    1W        W61825  22.372   1.186   9.222  0.4843 -0.1938 -0.0752
    1W        W61826  16.369  14.069   8.078 -0.1059 -0.2212 -0.2023
    1W        W61827  10.597  10.353   2.782 -0.4146  0.0020 -0.1361
    1W        W61828  28.149  18.355   7.186  0.0615 -0.2050 -0.3093
    1W        W61829   0.724  18.637   6.780 -0.1615  0.2711  0.0921
    1W        W61830  22.389  22.792   2.014  0.3024  0.1276  0.3926
    1W        W61831  13.127  28.759   0.721  0.1950  0.2536 -0.1782
    1W        W61832  29.541   6.338   2.391  0.0956  0.3759  0.0329
    1W        W61833  23.656  21.631   2.399 -0.1184  0.0330 -0.0600
    1W        W61834  29.570  29.894   7.769 -0.0178  0.0742  0.0706
    1W        W61835   9.601  14.766   8.143  0.1871  0.3388  0.1293
    1W        W61836   9.854  15.529   0.091  0.2842  0.1212 -0.0947
    1W        W61837   5.185  18.460   6.418  0.0775 -0.0015 -0.0782
    1W        W61838  24.036   3.117   7.868 -0.2609  0.1408  0.1359
    1W        W61839  25.664   0.839   3.926 -0.2721 -0.1652 -0.1296
    1W        W61840  22.751   8.539   0.732 -0.1784 -0.3076  0.0542
    1W        W61841   1.568  26.638   1.668  0.2079 -0.0322 -0.3741
    1W        W61842  11.486  24.896   7.585 -0.0352 -0.1136 -0.0508
    1W        W61843   7.786  14.920   6.958 -0.1609  0.0973  0.0720
    1W        W61844  23.027   3.197   8.514 -0.0747 -0.2716  0.0820
    1W        W61845   8.070  30.302   2.721  0.3313  0.0844 -0.0403
    1W        W61846  12.347  24.226   8.296 -0.1395 -0.3478  0.1231
    1W        W61847  10.081   0.377   3.289  0.0810 -0.0245  0.0395
    1W        W61848  14.452   3.128   6.362  0.1457  0.2191  0.0858
    1W        W61849  23.335   1.513   1.076  0.1367  0.1003  0.0590
    1W        W61850  18.374   3.488   1.127  0.0037 -0.2467 -0.2602
    1W        W61851  23.864  13.811   7.078  0.0759 -0.2692 -0.0552
    1W        W61852  17.306   6.413   1.919 -0.2066  0.0727  0.0372
    1W        W61853  21.494   2.180   8.826  0.0695  0.3667  0.0534
    1W        W61854  22.049  20.449   5.390  0.2248 -0.0192  0.0633
    1W        W61855  17.382  13.032   2.027  0.5736  0.1000  0.0158
    1W        W61856  11.783  20.269   6.389 -0.2643  0.0394  0.0560
    1W        W61857   6.201  11.416   8.815 -0.0238  0.0045 -0.0386
    1W        W61858  21.433   9.837   7.041  0.1559  0.0052 -0.0962
    1W        W61859   5.807  23.993   9.082  0.1412  0.4087  0.0264
    1W        W61860   3.065  24.037   1.062 -0.3118 -0.2854  0.0900
    1W        W61861  10.654  15.897   8.227  0.0895 -0.0814 -0.0965
    1W        W61862  14.528   4.256   6.588  0.0576  0.3301  0.3544
    1W        W61863   4.146   1.563   0.022 -0.1840 -0.1948 -0.1536
    1W        W61864   9.282  25.296   0.970  0.0020  0.4670  0.0940
    1W        W61865   8.124  13.534   0.772 -0.2219 -0.0967  0.2939
    1W        W61866  16.286  17.038   8.229  0.0252 -0.1764  0.0128
    1W        W61867  27.455  18.436   8.618  0.1032 -0.2051 -0.3301
    1W        W61868  11.968  21.885   6.489  0.0551 -0.0500 -0.0675
    1W        W61869   4.410  17.218   0.545 -0.0479  0.0467 -0.0512
    1W        W61870  14.741  11.972   8.289 -0.1057  0.0991  0.0125
    1W        W61871   5.523  27.769   1.354 -0.2115 -0.1381  0.2887
    1W        W61872   6.614  29.810   2.539  0.1216 -0.1495  0.2764
    1W        W61873   3.373   7.484   0.683 -0.0677  0.1123  0.1919
    1W        W61874  26.806   6.784   2.955  0.1903 -0.0366  0.0489
    1W        W61875   2.969  29.361   0.164  0.0575  0.0170  0.2330
    1W        W61876   8.232  20.732   6.007 -0.1930  0.2113  0.1078
    1W        W61877   5.689  18.519   6.606 -0.0404  0.0045 -0.0514
    1W        W61878  29.626   7.630   2.071 -0.0936  0.2188  0.0300
    1W        W61879  24.964  17.144   0.919 -0.3161  0.2197 -0.0891
    1W        W61880  11.796  20.001   5.878  0.1927  0.2247 -0.0715
    1W        W61881  27.168  13.777   8.739 -0.1648  0.1110  0.1203
    1W        W61882  17.765  20.594   6.266 -0.0758  0.0137  0.4424
    1W        W61883  25.999  11.768   5.945  0.1507 -0.0729  0.0842
    1W        W61884   0.984  25.723   0.340 -0.1542  0.0070  0.4308
    1W        W61885  14.144  28.244   8.908  0.2168  0.1274  0.0414
    1W        W61886   2.989  25.708   0.145  0.0513  0.0261 -0.0659
    1W        W61887  20.168  27.033   0.656 -0.0924  0.2280 -0.0561
    1W        W61888   9.992  26.918   8.914 -0.0332 -0.0174  0.0429
    1W        W61889  13.343  19.957   7.556  0.0965  0.0261 -0.0716
    1W        W61890   3.026  18.559   9.264  0.3081 -0.0389 -0.0603
    1W        W61891  19.341  11.956   9.185 -0.2087 -0.1764  0.2254
    1W        W61892  16.382   0.763   1.433  0.0754 -0.0889  0.0666
    1W        W61893   9.208  12.899   9.147 -0.0952  0.1949 -0.0426
    1W        W61894  26.148  23.714   8.988  0.3593 -0.1167 -0.0531
    1W        W61895  15.877  10.952   0.558  0.0799 -0.1594  0.2232
    1W        W61896  23.790  18.076   5.350  0.2017 -0.0616 -0.1566
    1W        W61897  29.554   1.528   1.050 -0.1982 -0.1015 -0.0663
    1W        W61898  13.882  11.185   6.846  0.2796  0.0731  0.0973
    1W        W61899  23.322   0.008   0.971 -0.1776  0.4106 -0.1298
    1W        W61900   9.345   2.556   0.337 -0.0659 -0.0156  0.4511
    1W        W61901  14.388  16.687   3.083 -0.2687 -0.0617 -0.1664
    1W        W61902  27.056  20.241   0.898  0.0006 -0.0075 -0.2068
    1W        W61903  10.361  23.261   8.400  0.2925  0.6595 -0.0125
    1W        W61904   5.535  12.097   1.774 -0.0476 -0.2320  0.0563
    1W        W61905   7.545  27.011   3.286 -0.1226  0.1448  0.0992
    1W        W61906   5.922   5.625   7.032 -0.0657  0.1423  0.1219
    1W        W61907  13.482   1.209   7.228  0.2801  0.1974 -0.1079
    1W        W61908  17.412  27.307   7.250  0.0227  0.2542  0.0543
    1W        W61909   8.798   2.718   2.472  0.1658  0.0720  0.1506
    1W        W61910  15.267   8.590   6.480  0.0973  0.3101 -0.1162
    1W        W61911  13.139  20.825   9.133 -0.0223  0.0179 -0.0862
    1W        W61912   0.469  14.096   8.240  0.2174 -0.0636 -0.1132
    1W        W61913  18.512  30.233   1.737  0.0495  0.0783 -0.1094
    1W        W61914   5.581  13.346   6.873  0.2485 -0.1756 -0.0455
    1W        W61915  28.975  24.544   9.221  0.0400  0.4247 -0.0934
    1W        W61916  17.047  11.680   0.814  0.2923 -0.0016  0.3020
    1W        W61917   1.770  13.357   1.971 -0.0248  0.0646 -0.2048
    1W        W61918  20.953  15.328   6.082 -0.0357  0.1205  0.0335
    1W        W61919   3.303   4.877   9.221  0.1595  0.0734  0.2949
    1W        W61920  21.594  11.564   2.044  0.1616  0.1155  0.2864
    1W        W61921  21.614   6.479   2.751  0.1045 -0.4015  0.1900
    1W        W61922  17.146  25.546   6.887 -0.3825  0.0810 -0.0153
    1W        W61923  18.339  13.659   0.001  0.1838 -0.0312  0.0313
    1W        W61924  23.500  23.896   0.884 -0.0492 -0.0974 -0.0090
    1W        W61925  28.746   5.030   3.383  0.0398 -0.0124  0.3432
    1W        W61926   0.017  19.429   8.888  0.0914 -0.1769 -0.1728
    1W        W61927  16.240   0.259   2.120  0.0213 -0.1360 -0.0965
    1W        W61928  14.873  23.977   2.756 -0.0456  0.2493 -0.0018
    1W        W61929   6.332  12.582   8.172 -0.1792 -0.0386  0.0296
    1W        W61930  25.522   0.219   7.356 -0.0806 -0.0851  0.0914
    1W        W61931  27.236  19.363   6.601 -0.1018  0.1281 -0.1041
    1W        W61932  11.973   0.661   7.067  0.1000  0.1118  0.0175
    1W        W61933  14.575  25.058   0.415 -0.0161  0.0653  0.0054
    1W        W61934   5.008  13.478   1.660  0.0732  0.0272  0.1099
    1W        W61935   0.707  17.285   0.301  0.0177 -0.1935 -0.2366
    1W        W61936  25.827  17.411   8.945  0.3765  0.1314 -0.0992
    1W        W61937   4.738  22.309   8.471  0.0072 -0.2962  0.4709
    1W        W61938   3.619  18.414   1.308  0.2018  0.1044 -0.0181
    1W        W61939  18.100   1.665   2.097  0.0532  0.1508  0.0513
    1W        W61940  16.190   5.461   0.198 -0.0639  0.0890  0.0691
    1W        W61941  28.445  27.286   8.650  0.1852  0.0480  0.1507
    1W        W61942  28.024  16.188   8.878  0.1437 -0.1196  0.1855
    1W        W61943  11.788  26.095   6.658 -0.1347  0.2221 -0.0408
    1W        W61944   7.454   2.281   8.923 -0.3351  0.1814 -0.0663
    1W        W61945   7.234  11.613   8.293 -0.0941 -0.1899 -0.3147
    1W        W61946   6.622   2.525   8.573  0.0891 -0.3695 -0.1210
    1W        W61947  19.024  19.618   8.115  0.2895 -0.0425  0.0723
    1W        W61948  20.757   2.725   8.166  0.1038 -0.0835 -0.1545
    1W        W61949   1.322  12.305   6.865  0.1183  0.1754  0.1356
    1W        W61950   7.580  24.780   6.649 -0.2327  0.0942  0.2231
    1W        W61951  10.299   3.228   8.985  0.0669  0.2791 -0.3112
    1W        W61952  16.864  27.052   1.796 -0.0000  0.0158  0.0228
    1W        W61953  27.111  24.643   1.332  0.0673  0.1484 -0.0084
    1W        W61954   2.667  15.851   1.805 -0.1228  0.2471  0.0663
    1W        W61955   2.607  16.560   0.237  0.0104  0.0296  0.0788
    1W        W61956  26.636   3.772   7.242 -0.0889  0.0767  0.1590
    1W        W61957   9.210  14.785   8.893 -0.1651  0.2334 -0.3732
    1W        W61958  16.238   8.428   6.510 -0.0554 -0.5047 -0.1811
    1W        W61959  18.477  14.296   8.660  0.1908  0.1603 -0.3255
    1W        W61960   7.850   5.943   7.059  0.2014  0.0909  0.2037
    1W        W61961  10.990  25.744   7.362 -0.0783  0.5058  0.0385
    1W        W61962  17.680  10.217   9.123 -0.1248  0.2369  0.2330
    1W        W61963  27.566  23.170   6.795  0.0840  0.0584  0.1193
    1W        W61964  13.586   3.566   8.956  0.0291 -0.2193 -0.1270
    1W        W61965  11.493   7.581   7.340  0.0469 -0.0425  0.1774
    1W        W61966  24.872   5.439   0.243 -0.0863  0.1474 -0.0580
    1W        W61967   8.394  15.039   6.853 -0.4819  0.0463 -0.1587
    1W        W61968  19.445  15.820   9.014 -0.1921  0.1078 -0.2723
    1W        W61969  19.858  25.153   1.211  0.2916  0.0003 -0.3350
    1W        W61970  12.291  29.788   0.577  0.0141  0.1873  0.1162
    1W        W61971   4.252  26.128   8.844 -0.1434 -0.2693  0.1262
    1W        W61972  19.291  20.721   0.020  0.0218  0.2875  0.2196
    1W        W61973  10.005  19.984   6.433  0.0638 -0.0659  0.0089
    1W        W61974  17.957   1.997   7.931 -0.0748 -0.0779  0.1007
    1W        W61975   4.289   6.504   7.822  0.1873  0.0572 -0.0150
    1W        W61976  18.941   8.509   7.685  0.0130 -0.0402  0.0626
    1W        W61977  28.540   7.322   0.150  0.1465  0.0857  0.0273
    1W        W61978   0.103   5.988   7.082  0.1607  0.2348  0.0467
    1W        W61979  29.549   3.461   0.318 -0.2245  0.5376 -0.3146
    1W        W61980  20.557  28.691   1.629  0.4824  0.2139  0.0999
    1W        W61981   1.959  29.380   3.173  0.0777 -0.3356 -0.0606
    1W        W61982  19.546   9.859   1.591  0.0682 -0.1116  0.2207
    1W        W61983  17.551   8.986   2.162 -0.3003  0.1164  0.2606
    1W        W61984  23.326  18.055   5.718  0.0175 -0.1570 -0.0904
    1W        W61985  20.100  29.209   3.507  0.2286 -0.0326 -0.1633
    1W        W61986  21.043  13.356   0.359  0.1897 -0.1516 -0.0251
    1W        W61987  10.310  19.505   1.596  0.2573 -0.2660 -0.1138
    1W        W61988  28.055  21.556   2.183 -0.3902  0.1803  0.0191
    1W        W61989  15.325  25.151   8.013 -0.2570 -0.1844  0.0641
    1W        W61990   4.668   1.757   0.196 -0.0337 -0.0991 -0.0893
    1W        W61991  16.494   8.499   7.008 -0.0628 -0.2079 -0.0191
    1W        W61992  29.357  12.917   0.860  0.1978 -0.2926 -0.2015
    1W        W61993  27.536  21.803   2.098 -0.0424  0.0876  0.0381
    1W        W61994  15.751   3.757   6.325  0.1814 -0.2527  0.2410
    1W        W61995  20.837  14.297   7.528  0.1945 -0.0972 -0.0551
    1W        W61996  14.447  23.559   1.483  0.3371  0.2374 -0.0271
    1W        W61997  29.633  25.812   8.658  0.0006  0.3300 -0.2161
    1W        W61998  27.549  16.440   0.377 -0.0624 -0.1596 -0.2717
    1W        W61999  29.939   0.353   1.552  0.1169 -0.0530 -0.1907
    1W        W62000  21.858  23.959   0.875  0.0523 -0.0158 -0.4796
    1W        W62001  20.834  14.030   7.990 -0.0171 -0.1188 -0.1114
    1W        W62002  23.809   6.023   0.531  0.0668 -0.0032  0.2266
    1W        W62003  16.276  17.297   7.093 -0.1391 -0.0246 -0.0689
    1W        W62004   7.226   6.165   9.242  0.1984  0.1130  0.0416
    1W        W62005  14.141  15.058   0.073  0.0032 -0.2696  0.2517
    1W        W62006  27.086  20.676   0.568  0.0186  0.0631 -0.1054
    1W        W62007   5.488  17.237   8.199  0.1130 -0.1828 -0.1903
    1W        W62008  21.809   4.933   6.259  0.1124  0.0540 -0.0560
    1W        W62009  11.244   8.239   7.959  0.2833  0.3551 -0.1989
    1W        W62010  30.241  28.935   8.674 -0.1545  0.0799 -0.3420
    1W        W62011  10.206  27.940   7.010 -0.0534  0.3635 -0.0959
    1W        W62012   2.380  27.162   7.246 -0.2192 -0.3523 -0.2255
    1W        W62013   3.968  28.661   2.769  0.0897 -0.1148  0.5077
    1W        W62014   6.791  29.890   1.369 -0.2070 -0.0686  0.2809
    1W        W62015   9.552  19.233   6.899 -0.2577  0.1236 -0.0037
    1W        W62016   1.342   0.842   0.113 -0.3032  0.2358  0.0514
    1W        W62017  28.481   3.302   2.491 -0.2443  0.1452 -0.0793
    1W        W62018   4.140  19.525   5.897 -0.2550 -0.2278 -0.1183
    1W        W62019  21.133  28.415   2.344 -0.1110 -0.1417 -0.1635
    1W        W62020  26.957  20.936   8.164  0.1215  0.1341  0.1577
    1W        W62021  21.655   1.117   2.486 -0.1487  0.1059 -0.0401
    1W        W62022   3.825  11.586   7.296 -0.0699  0.3242  0.1964
    1W        W62023  24.108  30.175   0.377 -0.1746 -0.2518 -0.4399
    1W        W62024  23.130  25.056   2.363  0.4008  0.0391 -0.4064
    1W        W62025  23.694   2.067   1.730  0.2652  0.1984 -0.0401
    1W        W62026  15.218   5.289   6.586 -0.0894 -0.2392 -0.0443
    1W        W62027  12.525  22.365   0.120  0.1964 -0.1529  0.1399
    1W        W62028  16.777  10.525   6.680  0.1350  0.1006  0.0928
    1W        W62029   1.666   8.678   7.322  0.2563  0.2254 -0.2414
    1W        W62030   7.413  26.979   7.423  0.0301 -0.4053 -0.2210
    1W        W62031  18.277  20.419   0.232  0.2102 -0.1393 -0.1573
    1W        W62032  12.047  21.482   7.940 -0.0127  0.1523 -0.2633
    1W        W62033  27.764  10.276   8.614 -0.4137 -0.1938 -0.0421
    1W        W62034   2.174   7.264   0.935 -0.1590  0.0800  0.1416
    1W        W62035   2.973  30.353   1.260 -0.2296  0.1225 -0.0259
    1W        W62036   6.125  29.500   7.616 -0.1443 -0.0520  0.1154
    1W        W62037   4.004  24.811   0.335 -0.0902 -0.2043 -0.1997
    1W        W62038   9.708  23.558   0.897  0.1153 -0.2075 -0.3141
    1W        W62039  19.761  26.731   8.578  0.1939 -0.1991 -0.2532
    1W        W62040  28.194  29.549   9.205 -0.3398 -0.0412 -0.0304
    1W        W62041  18.225  28.960   0.481  0.0938 -0.1345  0.0750
    1W        W62042   0.868  20.269   0.898 -0.0165 -0.2033 -0.0641
    1W        W62043   0.214  12.450   7.840 -0.3203 -0.1228  0.2590
    1W        W62044  30.314   0.398   3.427  0.0939  0.0368  0.0840
    1W        W62045  13.643  15.363   3.346  0.1072  0.0576 -0.0169
    1W        W62046  10.177  23.018   5.774  0.0646 -0.1460  0.0536
    1W        W62047  26.341  15.341   0.996  0.1948 -0.1426  0.0065
    1W        W62048  20.627   8.801   7.788  0.2471 -0.0427 -0.4132
    1W        W62049  16.769   5.188   1.088 -0.0889 -0.0006  0.0773
    1W        W62050   5.401   9.445   1.198 -0.2459  0.0850  0.2311
    1W        W62051  11.721  15.220   9.205  0.0088  0.2680 -0.2902
    1W        W62052   1.344  28.585   1.367  0.2519 -0.2030 -0.0644
    1W        W62053  18.832  11.902   8.293 -0.1465 -0.0733  0.0864
    1W        W62054   3.186  20.348   6.190  0.3351 -0.0113  0.0681
    1W        W62055  12.141   5.466   6.532 -0.0110  0.1003  0.1854
    1W        W62056  20.993   9.789   0.264  0.0985 -0.3885  0.1277
    1W        W62057   3.185  24.395   0.110  0.1701  0.0157  0.1467
    1W        W62058  28.873  20.678   6.244  0.1218  0.0669  0.3339
    1W        W62059   3.177  14.945   7.450 -0.1663  0.1803 -0.0071
    1W        W62060  12.106  20.093   0.534 -0.1244  0.0069 -0.1102
    1W        W62061   6.920   5.192   0.744 -0.1980  0.2939 -0.1095
    1W        W62062   6.075  18.510   6.276 -0.1700 -0.0065  0.0281
    1W        W62063  24.338   3.744   2.179 -0.0926 -0.1311 -0.1433
    1W        W62064  19.448   7.151   1.067 -0.2054  0.1094 -0.0577
    1W        W62065  30.235  10.964   8.033 -0.1157 -0.0632 -0.1567
    1W        W62066   4.350   4.008   0.836  0.1508 -0.0647  0.0565
    1W        W62067   2.217  13.892   0.072  0.1204 -0.2683 -0.0506
    1W        W62068  11.560  20.727   9.197  0.1491  0.0803  0.1232
    1W        W62069  12.030  11.871   7.612  0.2427 -0.1249 -0.0273
    1W        W62070  28.611  16.738   9.230  0.1528  0.0219  0.4225
    1W        W62071  28.362   2.178   7.297 -0.3118  0.0931 -0.0120
    1W        W62072  26.199   3.251   9.242  0.1383  0.3717 -0.1852
    1W        W62073  22.990  15.977   6.005 -0.1278 -0.1168 -0.2784
    1W        W62074   3.201   4.758   1.766 -0.3817  0.2903 -0.0708
    1W        W62075  24.774   1.321   2.165 -0.1105  0.2164  0.0347
    1W        W62076  22.338  10.101   0.173  0.3053  0.1403 -0.0144
    1W        W62077  25.984  27.599   0.546 -0.0947  0.1339  0.0665
    1W        W62078  26.001  23.047   1.080  0.3288 -0.0577  0.1033
    1W        W62079   7.209   4.541   8.224 -0.1592 -0.0857 -0.0208
    1W        W62080  19.962   1.140   8.235 -0.0136  0.0084 -0.0551
    1W        W62081  12.135   1.099   8.747 -0.2925 -0.1242 -0.0201
    1W        W62082  13.869  15.876   1.609  0.1819  0.1207  0.0603
    1W        W62083   9.232  17.889   2.377 -0.0956  0.1232  0.2085
    1W        W62084  21.166  17.975   1.463 -0.0246  0.0454 -0.0736
    1W        W62085  26.080  24.016   1.341  0.3277 -0.1044  0.0733
    1W        W62086  10.015  14.524   6.843 -0.3118  0.3746  0.1487
    1W        W62087   2.779   2.470   8.985 -0.2386 -0.2964 -0.1615
    1W        W62088  13.758   3.387   1.768 -0.3068 -0.2314 -0.0496
    1W        W62089  16.599  12.884   7.795  0.2998  0.0447  0.3285
    1W        W62090  21.489  24.726   8.802 -0.3025 -0.1550  0.4224
    1W        W62091   4.919  29.452   8.122  0.2593  0.1199 -0.4674
    1W        W62092  11.621   3.912   7.531 -0.0537  0.4628 -0.1363
    1W        W62093   6.686  20.645   6.464 -0.0862 -0.1419  0.1447
    1W        W62094  24.098  27.512   0.331  0.5100  0.0389 -0.1382
    1W        W62095  17.612  13.374   2.443 -0.2214 -0.2250  0.0330
    1W        W62096   7.731  17.903   0.264  0.2495  0.2324  0.0610
    1W        W62097  18.561  20.213   1.655  0.1613  0.0524 -0.1641
    1W        W62098   1.874  30.268   2.661 -0.0530 -0.0586 -0.0781
    1W        W62099  28.596  28.042   7.978  0.1048  0.1459  0.1727
    1W        W62100  28.374  20.049   1.073  0.2735 -0.0210 -0.3240
    1W        W62101  25.838   4.215   8.585 -0.4408 -0.1812  0.1671
    1W        W62102  28.465  14.430   0.125  0.0084  0.3425  0.3072
    1W        W62103   5.065  16.771   0.231 -0.1128  0.0313 -0.2902
    1W        W62104   5.394   2.953   2.230 -0.2984 -0.0922  0.3371
    1W        W62105   7.536  10.720   2.495  0.1389  0.1973 -0.3108
    1W        W62106   4.269   5.563   2.092  0.0634 -0.0290 -0.0161
    1W        W62107  14.162   2.755   6.520 -0.2487  0.2106  0.1046
    1W        W62108  20.157  30.035   3.172  0.0892  0.2555  0.0817
    1W        W62109  20.488  30.053   9.083  0.1433 -0.1413 -0.1737
    1W        W62110   5.154   6.987   2.537  0.0653 -0.0311 -0.0761
    1W        W62111  19.939  26.222   8.674  0.2079 -0.1452 -0.0178
    1W        W62112  24.027  20.067   0.432 -0.2975  0.4171  0.2978
    1W        W62113   0.534  17.726   0.793 -0.1663  0.0663  0.1328
    1W        W62114  25.356  22.196   8.623 -0.1103  0.3421  0.0556
    1W        W62115  23.164  24.077   2.210  0.1088 -0.0882 -0.0661
    1W        W62116  22.967   7.059   6.078  0.1866  0.0940 -0.0876
    1W        W62117  14.305  12.563   1.087 -0.1005 -0.1516 -0.1250
    1W        W62118  13.273   8.501   8.261  0.0607  0.1256  0.2312
    1W        W62119  20.283   8.115   7.008  0.1123  0.1031  0.0746
    1W        W62120  18.665  12.660   0.058  0.0608 -0.0605  0.0392
    1W        W62121   3.519  18.419   0.102 -0.1225  0.0877  0.1723
    1W        W62122   3.928  30.185   9.118 -0.2302 -0.0028 -0.1251
    1W        W62123  13.967  28.878   7.931  0.0837 -0.1065 -0.2974
    1W        W62124   4.361  18.810   8.066 -0.0047 -0.3455  0.1759
    1W        W62125  15.273   1.744   1.843 -0.0784  0.0360  0.2156
    1W        W62126  19.462  22.605   0.624 -0.1811 -0.1599 -0.0839
    1W        W62127  23.642  28.943   7.416  0.1379  0.0615 -0.2226
    1W        W62128  22.093   6.509   0.398  0.1720 -0.2305 -0.1450
    1W        W62129   5.685  22.253   0.730  0.2946 -0.1505  0.0597
    1W        W62130  27.698  19.296   6.403 -0.2144 -0.0186  0.2462
    1W        W62131  17.288  26.358   2.471  0.3380 -0.0374 -0.3626
    1W        W62132   0.970  24.611   0.006  0.0351 -0.0998  0.1986
    1W        W62133  13.888  22.716   0.024 -0.4047  0.1752 -0.1803
    1W        W62134  18.985  27.562   2.288  0.0535  0.2158  0.0934
    1W        W62135   4.248   3.078   8.553 -0.2179 -0.1147  0.2060
    1W        W62136  15.299  10.489   2.320 -0.3671 -0.1001  0.1235
    1W        W62137   0.157  24.999   8.451 -0.1356 -0.0156 -0.0653
    1W        W62138  14.703   2.041   6.350 -0.1540  0.0385 -0.2498
    1W        W62139   1.013   3.941   1.210 -0.3255 -0.0763 -0.1623
    1W        W62140   9.502  14.833   2.187 -0.1313 -0.0257  0.2376
    1W        W62141  10.441   6.829   1.300 -0.1585 -0.0960  0.0995
    1W        W62142  29.920  17.383   7.816 -0.0412 -0.0806 -0.0845
    1W        W62143   5.401  25.201   7.799  0.0958  0.1755 -0.0396
    1W        W62144  13.513   9.211   1.723 -0.4331 -0.2385 -0.0229
    1W        W62145  25.694  13.759   6.822 -0.0970 -0.1147  0.0271
    1W        W62146  14.502  29.465   8.890 -0.0138 -0.0553 -0.1749
    1W        W62147  24.691  25.267   6.749 -0.0337 -0.1258  0.2508
    1W        W62148  14.889  12.766   2.964 -0.1847  0.2463  0.1801
    1W        W62149  12.452   2.834   8.695  0.0930  0.0306  0.0755
    1W        W62150  10.682  11.811   7.295 -0.0713 -0.4700  0.0790
    1W        W62151  16.886   9.648   7.998  0.0859 -0.4272 -0.2667
    1W        W62152  17.952  22.914   1.647 -0.1326  0.0474  0.0688
    1W        W62153  23.324  15.515   6.743  0.0023 -0.4731  0.0102
    1W        W62154  13.546  29.712   8.039 -0.2370  0.1275  0.0055
    1W        W62155  17.524   7.801   2.050  0.1169  0.2152 -0.0717
    1W        W62156   5.211  12.269   0.940  0.0453 -0.1390  0.0825
    1W        W62157   9.074  28.693   0.823  0.1883  0.3077  0.1794
    1W        W62158   6.262  10.728   1.019  0.2479  0.0177  0.0900
    1W        W62159  30.028  12.478   8.662  0.1646  0.0860  0.0219
    1W        W62160   2.975   9.241   0.400 -0.0738  0.0014 -0.0760
    1W        W62161   0.879  24.723   3.006 -0.1492 -0.0749  0.1292
    1W        W62162  26.286  25.331   8.945 -0.1891 -0.1762  0.1381
    1W        W62163  20.755   7.245   7.531  0.3116 -0.0212 -0.1045
    1W        W62164  24.903   3.470   2.340 -0.1961 -0.4585  0.0034
    1W        W62165   2.914  13.041   8.192  0.1775  0.1003  0.0887
    1W        W62166   9.580  22.568   8.466  0.3218 -0.2376 -0.2207
    1W        W62167   4.264  16.130   0.097 -0.0221 -0.1397  0.0957
    1W        W62168  21.872   9.582   5.882 -0.1488  0.0540 -0.0446
    1W        W62169   4.956  14.350   2.223  0.2620  0.3711 -0.1347
    1W        W62170  29.405   7.279   2.901 -0.1113 -0.2172  0.0818
    1W        W62171  19.777  15.445   0.094 -0.0720 -0.1209  0.0495
    1W        W62172   8.535  12.643   2.515 -0.0795 -0.4190 -0.1267
    1W        W62173  12.866  23.791   6.826  0.0363 -0.1216 -0.3560
    1W        W62174   0.085  21.452   1.232  0.0183  0.1379 -0.0754
    1W        W62175  26.618   6.564   2.212  0.0500 -0.0346  0.0444
    1W        W62176  19.103   1.626   7.175 -0.2774  0.1970 -0.4372
    1W        W62177   6.899   0.764   1.000 -0.2630 -0.1579 -0.1091
    1W        W62178   6.525   8.950   8.670 -0.1475 -0.1736  0.0226
    1W        W62179   1.146   5.173   3.256 -0.1229  0.0236  0.3540
    1W        W62180  25.243   7.210   2.081 -0.0205 -0.0792  0.2472
    1W        W62181   6.801  14.056   8.029  0.2504  0.0828 -0.3665
    1W        W62182  15.375  12.118   0.712 -0.0104 -0.0588 -0.2599
    1W        W62183  26.386  24.196   2.947  0.0988  0.1284  0.1963
    1W        W62184  24.483  12.480   1.472 -0.1803 -0.3039 -0.0776
    1W        W62185  10.170  25.366   7.348 -0.1470 -0.0146 -0.1377
    1W        W62186  12.268  24.106   6.926  0.0097  0.0213  0.2814
    1W        W62187  17.861  28.201   1.419 -0.0697  0.4787  0.2824
    1W        W62188  16.365   2.112   1.736  0.2877  0.1990 -0.0662
    1W        W62189  23.522  20.687   2.192  0.1300 -0.3366 -0.2156
    1W        W62190   9.965  22.859   0.213  0.0274  0.2453  0.1436
    1W        W62191   3.706   6.392   9.170  0.1847 -0.1404 -0.0369
    1W        W62192  18.439  18.482   6.259  0.3768  0.0283 -0.4322
    1W        W62193   7.763  15.995   1.628  0.1079 -0.2860 -0.1250
    1W        W62194   6.145   6.561   0.285 -0.1587  0.0772 -0.0097
    1W        W62195  27.828   1.024   9.105  0.0339 -0.1185 -0.0854
    1W        W62196   9.813  13.747   8.921 -0.1092  0.0530  0.1608
    1W        W62197  16.400  28.963   8.545  0.0114  0.0568  0.1503
    1W        W62198  15.189  19.250   6.555  0.2505  0.1044  0.0904
    1W        W62199  15.674  18.035   8.564 -0.0314  0.0129  0.1569
    1W        W62200   1.323   3.385   8.752  0.3646 -0.0479  0.4210
    1W        W62201   8.504  15.193   7.362  0.2062 -0.0739  0.4725
    1W        W62202   0.584   6.545   1.215 -0.0468  0.1167 -0.5959
    1W        W62203   5.529   4.328   0.722 -0.2912 -0.0019 -0.2961
    1W        W62204  27.298  13.797   6.489 -0.1274 -0.4236  0.1577
    1W        W62205  12.352   1.215   0.937 -0.4113 -0.2865 -0.3023
    1W        W62206  13.721   6.689   7.971  0.0932  0.0035 -0.1284
    1W        W62207  22.167   8.429   0.749 -0.0801 -0.0344  0.1500
    1W        W62208   2.618  12.972   1.547  0.1195 -0.1728 -0.2639
    1W        W62209  26.969  26.447   2.498  0.0592  0.1280 -0.0088
    1W        W62210  25.530  10.489   2.384  0.0040  0.0695  0.1111
    1W        W62211   8.356  17.735   8.942  0.0698 -0.5779 -0.2201
    1W        W62212  24.851  19.344   8.594  0.0941  0.0769 -0.0496
    1W        W62213  17.119   4.231   8.319 -0.0559 -0.0557  0.0183
    1W        W62214   4.105  16.174   7.439 -0.1377 -0.1273 -0.1719
    1W        W62215  15.764  17.555   8.530  0.0372  0.2247  0.0530
    1W        W62216   6.193   1.266   3.224  0.0606 -0.3406  0.1280
    1W        W62217  25.113  13.017   1.631  0.1442 -0.1961 -0.2044
    1W        W62218  22.554   2.447   8.127 -0.1082  0.0130 -0.1460
    1W        W62219   6.466   0.542   1.049  0.1147  0.0087 -0.1187
    1W        W62220  22.518   1.194   1.373 -0.0820 -0.0144 -0.2010
    1W        W62221   4.145   7.260   0.066 -0.0165 -0.2506 -0.1004
    1W        W62222  17.004   9.059   1.318 -0.0577 -0.1959 -0.1182
    1W        W62223   1.753   8.150   2.279  0.1183  0.0857 -0.0736
    1W        W62224   3.378   4.850   8.594  0.2985 -0.2136 -0.0722
    1W        W62225   8.461   6.205   7.201 -0.1510 -0.1160 -0.1133
    1W        W62226  18.938   8.228   7.134 -0.0303 -0.1249 -0.0977
    1W        W62227   0.695  15.252   8.080 -0.0987  0.3070  0.0817
    1W        W62228   6.895  14.660   7.382  0.2787 -0.0175 -0.0559
    1W        W62229   2.990   6.383   0.331  0.1051  0.0577 -0.1457
    1W        W62230  21.977  18.879   0.382  0.1511 -0.0085  0.3644
    1W        W62231  14.158   1.522   7.412  0.1025 -0.2112 -0.2846
    1W        W62232  30.329  26.230   2.932 -0.3216 -0.2941  0.3509
    1W        W62233   4.087   6.180   8.220 -0.2696  0.0023  0.2754
    1W        W62234  17.221   3.607   8.874 -0.0422  0.2879  0.1267
    1W        W62235   4.560  26.305   2.243 -0.1940 -0.0645 -0.4503
    1W        W62236   3.165   5.185   2.745 -0.4202  0.0080  0.2184
    1W        W62237   3.231  15.679   7.811 -0.1449  0.1190 -0.0588
    1W        W62238  14.074   4.242   1.339 -0.1536 -0.2156 -0.0119
    1W        W62239  27.966   6.761   1.610  0.0412  0.0516 -0.0690
    1W        W62240  17.210  19.276   1.346  0.0007 -0.0913  0.1670
    1W        W62241   5.792  29.831   7.366  0.0647  0.0069 -0.0155
    1W        W62242  17.781  23.825   1.710  0.1537 -0.0434 -0.0178
    1W        W62243  24.509   4.613   3.443  0.1749 -0.0060 -0.1828
    1W        W62244  10.232   2.136   0.282  0.0883 -0.0977 -0.1435
    1W        W62245  27.556  28.228   0.083 -0.2033 -0.0669  0.0097
    1W        W62246  21.961  29.349   8.236  0.1107  0.0438  0.3872
    1W        W62247  22.693  24.860   2.254 -0.1658 -0.2416  0.1120
    1W        W62248  18.271  10.924   7.709  0.1426  0.0366 -0.0813
    1W        W62249  18.639  18.358   8.933 -0.0395  0.2499  0.0370
    1W        W62250   7.338  22.311   2.951 -0.1455  0.1954 -0.0599
    1W        W62251  26.154  26.740   9.004 -0.0774 -0.0425  0.1561
    1W        W62252   0.473  23.101   8.525 -0.0580  0.3379  0.2841
    1W        W62253   8.377   0.463   0.843  0.2247 -0.0822  0.1814
    1W        W62254  24.159   1.591   0.069  0.0174 -0.1184  0.1816
    1W        W62255   0.277  12.522   8.817  0.0377  0.0942  0.2062
    1W        W62256   5.055  26.270   7.041  0.2414 -0.0374 -0.2240
    1W        W62257   6.771  12.578   0.310  0.0932 -0.2631  0.0290
    1W        W62258   4.706   5.812   2.061  0.0330  0.0647  0.0122
    1W        W62259  26.099  22.140   7.488 -0.1088  0.0763 -0.0854
    1W        W62260  26.421   5.991   7.836  0.0518  0.1052  0.1351
    1W        W62261  12.679   0.125   1.000 -0.1651 -0.0898  0.0172
    1W        W62262   9.191  28.037   7.990  0.1644 -0.1670  0.0056
    1W        W62263  29.874  21.601   0.267 -0.1893 -0.4667 -0.0919
    1W        W62264  16.537  27.572   7.653  0.3786  0.0042  0.0690
    1W        W62265  29.656  27.113   8.294  0.0574 -0.2237 -0.0895
    1W        W62266  26.282  13.114   8.193  0.1614  0.1255 -0.1131
    1W        W62267   2.259   2.113   3.179  0.2099  0.0077 -0.1019
    1W        W62268   5.607  14.575   9.117 -0.0272  0.2144 -0.0364
    1W        W62269  19.104  29.154   1.936 -0.1634  0.0333 -0.2540
    1W        W62270  26.874  20.095   7.075  0.1516 -0.0891  0.0169
    1W        W62271  17.624   2.984   8.984 -0.1973 -0.0868  0.0229
    1W        W62272  25.875   0.617   3.525 -0.4628  0.2253 -0.0909
    1W        W62273  13.539  24.911   7.326  0.3744 -0.1310 -0.2432
    1W        W62274   7.998   3.141   7.695 -0.1924 -0.1646 -0.1785
    1W        W62275  10.276  15.719   7.254  0.0714 -0.0966 -0.0455
    1W        W62276  13.272  21.642   6.783  0.1332 -0.3095 -0.1021
    1W        W62277  20.844   5.567   0.460  0.2482 -0.0237 -0.0908
    1W        W62278  14.009  12.934   8.233 -0.0945  0.0630 -0.0957
    1W        W62279   5.980  13.735   6.871  0.0079 -0.2680 -0.0983
    1W        W62280   2.624  11.056   9.162 -0.0323  0.1333 -0.3215
    1W        W62281  13.688  14.507   1.607  0.1404  0.4197  0.3450
    1W        W62282   1.093   3.525   6.853 -0.2456 -0.1227  0.1131
    1W        W62283  13.289   4.906   0.391 -0.2950  0.2363  0.0048
    1W        W62284   0.962   1.022   2.286 -0.7595  0.0656  0.1745
    1W        W62285   1.946   9.916   7.818 -0.1695 -0.0332  0.0649
    1W        W62286   3.123   2.701   8.023 -0.1373 -0.0347  0.2140
    1W        W62287  30.006   5.411   8.224 -0.1796 -0.0618 -0.0315
    1W        W62288   2.245   8.914   0.871 -0.0734  0.1227 -0.1560
    1W        W62289  22.204  13.326   8.068  0.0097 -0.0129 -0.3284
    1W        W62290   1.017  12.807   1.353 -0.2004 -0.2972 -0.1400
    1W        W62291  18.330   7.251   0.111  0.0844 -0.0050 -0.1851
    1W        W62292   8.036  15.118   0.961  0.0965  0.1106  0.0152
    1W        W62293  26.745  16.847   8.504  0.0688 -0.0894 -0.4160
    1W        W62294  24.757   2.097   7.104  0.2586  0.0181 -0.1478
    1W        W62295  21.930  26.919   3.469  0.0831  0.2866 -0.1104
    1W        W62296  16.247  12.550   0.748 -0.0473 -0.0926 -0.1060
    1W        W62297  16.726  22.626   1.284  0.2672  0.3393 -0.0158
    1W        W62298  22.025  28.014   1.964  0.1795 -0.2446 -0.0917
    1W        W62299  10.981   0.284   1.758 -0.2533 -0.2713  0.0379
    1W        W62300  13.988   2.413   7.282 -0.0406  0.2433  0.0397
    1W        W62301  15.765  13.223   2.437  0.0676 -0.3963 -0.0695
    1W        W62302  19.384  12.546   0.708  0.0058 -0.0796  0.1726
    1W        W62303  11.750  11.483   7.623 -0.1776  0.2600 -0.0484
    1W        W62304   6.166  26.822   8.279 -0.0336  0.1729  0.0491
    1W        W62305  24.614   2.728   8.139 -0.1474  0.0654 -0.0198
    1W        W62306   7.632  11.217   0.031 -0.3379 -0.1749 -0.0780
    1W        W62307  22.038   6.135   2.597  0.1237 -0.3072 -0.1543
    1W        W62308   4.919  28.251   3.568 -0.3606  0.1855 -0.4758
    1W        W62309  19.930  25.145   9.124  0.0986 -0.0578  0.1381
    1W        W62310  14.914   0.845   6.613 -0.1254 -0.0481 -0.1560
    1W        W62311   0.595  23.828   8.179 -0.2212 -0.2099 -0.0347
    1W        W62312   9.888  21.185   1.275  0.1580  0.0930  0.1339
    1W        W62313   1.985  23.425   2.303  0.0753 -0.1107 -0.3148
    1W        W62314  20.399  16.331   7.552  0.3414 -0.0577 -0.0987
    1W        W62315  14.401  27.569   0.763  0.3347 -0.1814 -0.2397
    1W        W62316  18.930  13.610   8.425 -0.1074  0.0151  0.1504
    1W        W62317   5.638   8.693   0.824 -0.2326 -0.2091  0.0556
    1W        W62318  27.001  20.736   6.588 -0.2044  0.1421 -0.3497
    1W        W62319  15.453  22.348   2.671  0.1275  0.0910  0.0554
    1W        W62320  23.306  12.268   0.415 -0.0654 -0.1856  0.2220
    1W        W62321   8.220  12.974   8.957 -0.0398 -0.2033  0.4575
    1W        W62322   7.769  20.903   7.763  0.1954  0.2717  0.1701
    1W        W62323  13.195  23.936   7.412 -0.0693  0.1617  0.2515
    1W        W62324   8.621   1.363   1.823  0.0381 -0.2114 -0.0024
    1W        W62325   0.980   7.086   2.074 -0.1606 -0.0771 -0.1315
    1W        W62326  28.411   2.032   2.685 -0.0235 -0.1072  0.3012
    1W        W62327   4.790  20.076   9.074  0.0641 -0.0348 -0.1010
    1W        W62328   4.100   3.270   2.364 -0.1561  0.0930 -0.1354
    1W        W62329  21.802  15.452   7.840 -0.1697 -0.0658  0.2227
    1W        W62330  22.319  28.376   0.295 -0.0189  0.0413 -0.0298
    1W        W62331  10.036  24.460   7.630  0.3411  0.2267  0.0529
    1W        W62332   1.808  19.987   8.984 -0.0364 -0.0065 -0.2076
    1W        W62333  20.678  17.599   8.876  0.0583 -0.0869  0.1118
    1W        W62334  19.746  29.057   7.344 -0.4557  0.4040  0.1827
    1W        W62335  20.539  21.629   8.528 -0.1315 -0.4196  0.2151
    1W        W62336  12.690  20.477   8.580 -0.3125 -0.1090 -0.0335
    1W        W62337  28.532  29.323   3.544 -0.0214 -0.1613  0.4576
    1W        W62338  13.067  20.878   5.344 -0.0594 -0.0692  0.2866
    1W        W62339  20.349  29.274   9.161 -0.0710 -0.0054  0.3423
    1W        W62340  17.133  27.296   3.587  0.0890 -0.0089  0.3455
    1W        W62341  13.778   8.514   9.082  0.3430 -0.1765 -0.2428
    1W        W62342  10.219  25.702   1.481  0.0402  0.1088 -0.1455
    1W        W62343  30.323  12.840   8.580  0.2140  0.1635  0.2018
    1W        W62344  29.423  17.320   8.927 -0.1026  0.1736 -0.1353
    1W        W62345  15.305  26.800   2.065  0.2130 -0.0592  0.0330
    1W        W62346  28.497  11.066   1.328 -0.0399  0.2002 -0.0140
    1W        W62347  28.573  19.105   5.895 -0.1198  0.0172 -0.0977
    1W        W62348   7.296  18.440   7.984 -0.1068  0.0467  0.2327
    1W        W62349  14.621  25.770   1.503  0.2105  0.3300  0.3484
    1W        W62350   6.159  22.258   0.094 -0.2178 -0.1406 -0.2783
    1W        W62351   2.167  11.379   1.122  0.0017  0.3593 -0.2619
    1W        W62352  12.336   7.346   0.939 -0.3683  0.1818  0.0157
    1W        W62353  23.535   1.491   8.465 -0.0449 -0.1501  0.1512
    1W        W62354  26.664  10.165   2.039 -0.2317 -0.2144 -0.2011
    1W        W62355   3.767  28.686   7.417  0.0903 -0.0802 -0.0366
    1W        W62356  24.663  28.785   2.474  0.1666 -0.0167  0.0785
    1W        W62357  26.864  16.048   7.416  0.2322  0.0560 -0.0462
    1W        W62358  22.517  10.739   2.184  0.1552  0.1068  0.1881
    1W        W62359   8.218   0.724   1.338 -0.1319  0.2993 -0.3857
    1W        W62360  29.117  28.790   7.820 -0.1223  0.0699 -0.0820
    1W        W62361  19.426   6.232   0.243  0.0030 -0.1672 -0.2296
    1W        W62362  28.010  27.493   1.233  0.2223 -0.0851  0.0813
    1W        W62363  26.808  24.098   7.137 -0.4696  0.0558  0.2032
    1W        W62364  28.998  20.927   1.468  0.0502  0.2554  0.0275
    1W        W62365  18.975   2.193   0.648 -0.0881 -0.1439 -0.1087
    1W        W62366  24.068   8.789   9.030  0.0817 -0.0867 -0.1905
    1W        W62367  20.221  25.902   2.279 -0.0039 -0.0177 -0.0193
    1W        W62368   3.527  30.240   1.926  0.3665  0.0616  0.2137
    1W        W62369  19.415  13.596   7.054 -0.1820 -0.1812  0.1135
    1W        W62370  23.326   9.953   7.565 -0.3078 -0.1482  0.0584
    1W        W62371  28.669  15.562   8.035 -0.0470 -0.0659 -0.1503
    1W        W62372   1.711  11.931   6.602 -0.0792  0.0442  0.2641
    1W        W62373  13.375   3.782   0.514 -0.1755 -0.2161 -0.0203
    1W        W62374   7.880   2.374   9.138 -0.1438 -0.3033  0.2085
    1W        W62375   0.219  18.134   8.525 -0.2174  0.1884  0.0892
    1W        W62376  20.987  13.253   2.100  0.1238  0.0026 -0.2559
    1W        W62377  11.541  28.693   1.573  0.1109 -0.0222  0.2492
    1W        W62378   7.503   3.740   1.249  0.1796  0.1392  0.3834
    1W        W62379   5.304   7.474   2.398  0.1917 -0.2758 -0.1249
    1W        W62380  25.895  12.611   6.348  0.0112 -0.0462  0.2691
    1W        W62381  29.535  25.753   7.831  0.2929  0.0379 -0.0517
    1W        W62382  17.529  20.728   6.709 -0.1795  0.5335  0.0778
    1W        W62383   7.149   2.402   3.036  0.0522  0.0840  0.3197
    1W        W62384  19.952   0.969   7.597 -0.1776  0.2722 -0.2925
    1W        W62385  25.697   1.743   0.621  0.1791 -0.0221  0.1267
    1W        W62386   8.318   7.120   2.128  0.1538  0.0172 -0.2446
    1W        W62387  15.298  11.073   8.047  0.2252  0.1547  0.0438
    1W        W62388  24.180  27.021   1.393  0.3359 -0.0192  0.1943
    1W        W62389  22.777  17.955   0.504  0.0705  0.1534 -0.3307
    1W        W62390   2.568  30.278   7.714  0.1080 -0.2783 -0.0305
    1W        W62391  17.103   8.354   6.294 -0.2147  0.2463  0.0007
    1W        W62392   7.222   8.271   2.063 -0.4201  0.2155 -0.1743
    1W        W62393  28.548  17.745   0.613 -0.4752  0.3137  0.4717
    1W        W62394   1.908   2.287   0.395 -0.1546  0.0350 -0.0256
    1W        W62395   2.761  11.359   1.917 -0.1796 -0.2250 -0.1343
    1W        W62396  19.383   3.583   0.126 -0.1718 -0.0931 -0.0546
    1W        W62397   4.036   7.022   6.353  0.0501 -0.1691  0.2445
    1W        W62398  11.383   3.378   6.789 -0.1081 -0.1630  0.1635
    1W        W62399  27.990   2.637   8.185  0.0622  0.1078  0.4196
    1W        W62400   1.250  12.950   0.019 -0.0651  0.0413 -0.2103
    1W        W62401   5.001  15.979   7.553  0.1460  0.1242  0.0622
    1W        W62402  25.986   4.554   0.059 -0.0820  0.0378 -0.0813
    1W        W62403  15.430   1.324   1.730  0.0050 -0.0892 -0.0416
    1W        W62404  22.941  15.735   5.548  0.2178  0.4969  0.1238
    1W        W62405   2.433  17.858   6.609  0.2571  0.0281  0.2992
    1W        W62406  13.771  15.271   7.850 -0.1869 -0.0930 -0.2601
    1W        W62407  25.175  28.148   7.135  0.2781  0.1331 -0.0865
    1W        W62408  14.129   9.088   1.327 -0.0308  0.2177 -0.2134
    1W        W62409  21.225   5.596   1.481  0.0148  0.0311 -0.1906
    1W        W62410  27.899   3.972   1.853 -0.1916  0.1237 -0.0556
    1W        W62411  24.451   5.447   6.359  0.0422  0.1283 -0.2193
    1W        W62412  15.607  26.379   2.187 -0.2555  0.1051  0.0864
    1W        W62413  30.201   2.548   2.311 -0.0620 -0.0376  0.0850
    1W        W62414  24.168  18.780   1.426 -0.2624  0.1398 -0.3349
    1W        W62415  13.773   2.485   0.734  0.0486 -0.3990  0.0412
    1W        W62416  20.924  19.125   5.940  0.2056 -0.2234 -0.1158
    1W        W62417  18.678   7.275   8.095  0.0456 -0.1164  0.1560
    1W        W62418  20.593  24.989   7.339 -0.2950 -0.1514  0.0341
    1W        W62419  18.877   7.587   7.018  0.0743 -0.2757 -0.0958
    1W        W62420  24.741   7.643   1.770  0.0303  0.1443  0.3760
    1W        W62421  24.773  19.524   0.302  0.0978 -0.0284 -0.1090
    1W        W62422  16.591  20.107   5.821  0.4632  0.0949 -0.0715
    1W        W62423  11.047   4.924   0.343  0.1205  0.2214  0.2977
    1W        W62424   7.258   3.747   8.103  0.0626 -0.0299 -0.1175
    1W        W62425   6.763  24.358   1.273 -0.4210  0.0125  0.0798
    1W        W62426  12.019   8.308   1.358  0.0489 -0.2138 -0.0902
    1W        W62427   5.949   3.918   0.878 -0.1392  0.1505  0.3203
    1W        W62428  21.095  21.614   8.641  0.0249 -0.1160  0.3500
    1W        W62429   9.877   8.300   6.634  0.0184  0.0400  0.2485
    1W        W62430   3.207  25.555   1.062 -0.0951  0.0655  0.0445
    1W        W62431   3.273  16.262   7.837 -0.0517  0.3502 -0.0177
    1W        W62432  28.453  23.235   7.825  0.1582 -0.1451 -0.0747
    1W        W62433  25.290  30.311   0.382  0.3990  0.0074  0.1614
    1W        W62434   8.424  25.908   0.958 -0.2894  0.2706  0.6664
    1W        W62435  23.555   2.500   1.575 -0.1320 -0.0609 -0.1616
    1W        W62436  14.922   7.332   8.053  0.1172  0.1381  0.1523
    1W        W62437  27.507  27.449   2.354  0.2689  0.0021 -0.0468
    1W        W62438  18.239   6.606   8.434 -0.3224  0.0932  0.0987
    1W        W62439  27.973  28.875   2.735  0.2164  0.0312  0.1331
    1W        W62440  12.365   8.324   1.673  0.4480 -0.0232 -0.0567
    1W        W62441  21.980  14.483   8.815 -0.0583  0.0715  0.1050
    1W        W62442  18.872   4.578   7.268  0.1107 -0.2105 -0.3725
    1W        W62443  14.883  17.048   0.551 -0.1171  0.1244 -0.0624
    1W        W62444  27.159  20.657   2.335  0.3917  0.0850  0.2993
    1W        W62445   9.731  18.372   6.468 -0.2748 -0.0802  0.1587
    1W        W62446  20.822  13.944   2.840  0.0579 -0.1076 -0.0067
    1W        W62447   7.623   1.026   7.840  0.2825 -0.3009  0.4343
    1W        W62448  25.396  13.167   8.323  0.1151 -0.0090  0.1954
    1W        W62449   6.909  19.877   8.532  0.0043  0.4580  0.1077
    1W        W62450  21.804   5.187   6.652 -0.0379  0.0109 -0.0614
    1W        W62451   6.763   7.456   7.543 -0.2646  0.4129 -0.2933
    1W        W62452  19.467  14.852   1.342 -0.2547 -0.2400  0.2930
    1W        W62453   6.786   8.314   7.070 -0.1861 -0.2179 -0.2256
    1W        W62454   7.950  23.223   2.007 -0.1284 -0.1751 -0.2033
    1W        W62455   2.747  13.619   6.921 -0.0740 -0.0617 -0.1404
    1W        W62456   0.973  21.859   1.557 -0.2579  0.3505 -0.1130
    1W        W62457  18.484  21.827   8.562  0.1830 -0.1826 -0.0362
    1W        W62458   9.506   3.134   1.963  0.0624 -0.3654 -0.1030
    1W        W62459  25.803  26.339   2.287 -0.0127  0.0459  0.0279
    1W        W62460  19.769  21.047   0.070 -0.1506 -0.1225  0.0272
    1W        W62461  27.740  11.731   7.380 -0.1178 -0.1604  0.0184
    1W        W62462  26.366  27.851   1.214  0.0414 -0.0071  0.2929
    1W        W62463  17.926   7.361   7.931  0.0112 -0.1519 -0.0146
    1W        W62464  15.698  20.263   1.740 -0.0732 -0.1265  0.2033
    1W        W62465   9.547  15.669   1.302 -0.0705 -0.0617 -0.0152
    1W        W62466  18.393   4.859   6.699  0.0268  0.1660 -0.0202
    1W        W62467  20.263  18.354   7.870 -0.2682 -0.0346 -0.1725
    1W        W62468  10.981  21.313   8.625  0.1721 -0.0084  0.2975
    1W        W62469  22.785   8.340   6.132  0.0199  0.1231 -0.2427
    1W        W62470  19.371   3.662   2.879  0.0280 -0.0171  0.0210
    1W        W62471   0.776   1.238   8.315 -0.0316  0.0080 -0.0610
    1W        W62472  13.383   3.487   2.951 -0.0913 -0.1064 -0.1079
    1W        W62473  12.253  23.757   0.409  0.0918 -0.1052 -0.0671
    1W        W62474  19.849  10.598   7.557  0.0416  0.1234 -0.2310
    1W        W62475   7.041  26.453   6.713 -0.3070 -0.1007 -0.2303
    1W        W62476  23.222   2.092   7.321  0.0273  0.2958 -0.1913
    1W        W62477  22.592  16.256   1.042 -0.0025  0.3793  0.2827
    1W        W62478  26.188  20.960   1.579  0.0766  0.0465 -0.1260
    1W        W62479  23.720   9.689   7.616  0.3605  0.2008  0.0340
    1W        W62480  22.093  25.110   6.783 -0.4206  0.0426  0.2751
    1W        W62481  21.122  22.852   6.067 -0.0143 -0.1261 -0.3867
    1W        W62482  12.002   7.454   1.445  0.0923 -0.2005  0.0128
    1W        W62483  14.566  20.246   6.203 -0.0949 -0.0196  0.2891
    1W        W62484  16.610   2.643   6.180  0.1350  0.5837  0.0966
    1W        W62485  16.546   8.944   6.395  0.0919 -0.1610 -0.0408
    1W        W62486  21.821  22.073   1.026 -0.2981  0.1013  0.2484
    1W        W62487  13.333  10.077   9.005 -0.1204  0.1634  0.0038
    1W        W62488  29.865  30.143   2.339  0.1415  0.0536  0.1577
    1W        W62489  22.860  21.970   1.863 -0.2651  0.2135  0.0028
    1W        W62490  29.976  28.344   1.621 -0.0105  0.1293  0.1198
    1W        W62491  18.806   0.744   8.545  0.4590  0.1719  0.2282
    1W        W62492  12.782   0.214   3.718 -0.1439 -0.1847  0.0120
    1W        W62493   0.870  23.484   8.416  0.1763 -0.2368 -0.0926
    1W        W62494  19.118  24.999   8.661  0.1628  0.3227 -0.1868
    1W        W62495   7.251   1.305   3.062  0.0266  0.2222  0.3059
    1W        W62496  16.061  20.842   2.372  0.2391  0.3156  0.0148
    1W        W62497  11.625  20.710   1.060  0.2887  0.1218 -0.1204
    1W        W62498   5.693  20.503   8.788  0.1475 -0.3053  0.1375
    1W        W62499  24.086  14.556   8.402 -0.0869  0.0199  0.0722
    1W        W62500   0.052  10.715   1.142 -0.1964  0.0973 -0.0314
    1W        W62501  17.627  26.182   0.465 -0.2321 -0.0007  0.0343
    1W        W62502   1.939   0.464   7.394 -0.4607  0.1909  0.2501
    1W        W62503   5.306  23.875   1.662 -0.3778  0.0200 -0.1028
    1W        W62504  24.953  20.751   0.925  0.1269  0.0090 -0.1770
    1W        W62505  12.833   7.192   6.606  0.2652 -0.0451 -0.1130
    1W        W62506  25.187  13.507   0.448 -0.0658  0.0470  0.1741
    1W        W62507   3.098   9.917   8.494 -0.0023 -0.1528 -0.0584
    1W        W62508   0.187   7.517   1.001 -0.3915 -0.0217 -0.0794
    1W        W62509  19.873  28.194   8.381 -0.3114  0.2214 -0.0251
    1W        W62510   1.433   9.680   7.804 -0.1639  0.2071  0.1539
    1W        W62511  23.621  12.732   0.252 -0.0050  0.1783 -0.0831
    1W        W62512  20.311  13.489   0.917  0.2723 -0.2307  0.0388
    1W        W62513   3.558  29.764   6.998  0.0461 -0.2145  0.2771
    1W        W62514  27.979  14.523   1.172 -0.0127  0.1782 -0.1790
    1W        W62515  28.851  25.688   0.771  0.1943 -0.2147  0.0094
    1W        W62516  26.649  21.408   8.223 -0.2554  0.1365  0.0445
    1W        W62517  18.789  19.167   2.411 -0.4815  0.0590 -0.1462
    1W        W62518  20.876   2.606   7.665 -0.2920 -0.0981  0.0430
    1W        W62519  30.213  28.756   4.355  0.3133 -0.0488  0.1706
    1W        W62520   6.904  29.735   0.126  0.1690 -0.0786 -0.2411
    1W        W62521  24.002  10.096   7.777 -0.0881  0.1360 -0.3125
    1W        W62522  19.812   3.184   0.018 -0.1187  0.1950 -0.2419
    1W        W62523  16.311  21.392   7.003  0.0864 -0.4040 -0.3025
    1W        W62524  25.185  29.822   8.869 -0.1364  0.2185  0.3116
    1W        W62525  10.591  17.848   0.766 -0.1359 -0.0993  0.1734
    1W        W62526   5.415  26.387   1.220  0.1866 -0.3604  0.2304
    1W        W62527  19.835  19.621   6.927  0.2109 -0.2047  0.0035
    1W        W62528   7.639  19.302   6.378  0.1681 -0.0485  0.0582
    1W        W62529  29.691   9.171   1.857  0.0859 -0.1554 -0.1771
    1W        W62530  24.113  28.507   3.282  0.1635 -0.3178  0.2024
    1W        W62531  21.001   8.164   8.396  0.0531  0.0215 -0.2483
    1W        W62532   6.052  21.937   8.857  0.0449 -0.2136  0.0030
    1W        W62533  25.235  22.755   7.513 -0.1666  0.0089  0.4794
    1W        W62534   0.989  16.905   8.898  0.1813  0.0066 -0.1158
    1W        W62535   0.695   3.378   0.634 -0.1199 -0.2910 -0.1144
    1W        W62536  10.586   6.440   8.859  0.1347 -0.0375 -0.2880
    1W        W62537  13.952  27.241   8.842  0.0453  0.2015  0.2116
    1W        W62538   6.521   4.485   1.544 -0.0402  0.1298 -0.3538
    1W        W62539  23.607  28.867   9.107  0.1913  0.0300  0.0937
    1W        W62540  11.652  14.134   2.992 -0.1824  0.0623 -0.1111
    1W        W62541  11.355  23.019   2.155  0.2519 -0.0883 -0.1457
    1W        W62542   0.991   1.509   8.640  0.1105 -0.2185  0.0394
    1W        W62543   8.362   1.699   0.105 -0.2168  0.0396 -0.0531
    1W        W62544   2.757  23.144   1.953  0.0606  0.5516 -0.1249
    1W        W62545   1.856  10.191   1.320  0.1168 -0.1161 -0.1223
    1W        W62546  17.504   3.579   2.967  0.0107 -0.1514 -0.3250
    1W        W62547   4.931  26.765   7.484  0.0022  0.1769 -0.0768
    1W        W62548  23.491  15.175   6.340 -0.3194  0.0131  0.1688
    1W        W62549   2.846   9.584   0.937  0.3027 -0.2453 -0.0058
    1W        W62550  21.844   4.231   6.954 -0.2122  0.0161 -0.1382
    1W        W62551   3.453  26.896   1.981  0.0525 -0.1178  0.0436
    1W        W62552  22.778   3.612   0.298  0.0786 -0.0232 -0.0208
    1W        W62553  24.156   1.819   1.135  0.3538 -0.0089  0.0866
    1W        W62554  21.216   2.988   7.953  0.3810  0.0195 -0.0871
    1W        W62555  20.777  17.049   6.488 -0.0129 -0.1631  0.2007
    1W        W62556  15.690   7.089   8.479  0.1462  0.0985  0.1867
    1W        W62557  18.326   9.187   7.421  0.1764  0.2853  0.0841
    1W        W62558  16.913  25.812   1.114  0.0732 -0.1790 -0.1016
    1W        W62559  16.635   1.721   7.638  0.0266  0.2139  0.0175
    1W        W62560  24.430  21.982   8.480  0.0978  0.1663 -0.0401
    1W        W62561   8.621  12.022   7.344  0.0102 -0.1282 -0.2065
    1W        W62562  18.160   3.888   0.561  0.0773  0.0371  0.1317
    1W        W62563  10.309  16.221   7.217 -0.2824  0.1628 -0.0949
    1W        W62564  21.146  11.478   0.017 -0.0472  0.1239  0.1460
    1W        W62565  22.934  26.565   2.072  0.3561 -0.3857  0.2972
    1W        W62566  23.691  18.846   8.343 -0.2418 -0.3436  0.3494
    1W        W62567  22.775  25.481   1.020 -0.0134  0.1853 -0.3245
    1W        W62568  27.600  26.032   1.863  0.0180  0.3184  0.0578
    1W        W62569  25.831   7.975   8.494 -0.0184 -0.1845  0.0208
    1W        W62570  16.756  15.142   0.799  0.1197 -0.2559  0.0333
    1W        W62571  14.561   0.706   7.541 -0.0877 -0.1430  0.1034
    1W        W62572  16.041  27.448   9.248 -0.0277  0.1302  0.0832
    1W        W62573  26.968  29.366   1.929 -0.1160  0.0178 -0.1021
    1W        W62574  19.442  26.203   1.525  0.0567 -0.0881  0.0610
    1W        W62575   3.702  14.472   8.798  0.1261  0.1431 -0.2452
    1W        W62576  10.090   6.457   8.807  0.2353  0.1489 -0.1054
    1W        W62577   1.626  10.637   7.483  0.0003 -0.1241  0.0893
    1W        W62578   9.700  10.179   2.589 -0.3033 -0.1752 -0.0759
    1W        W62579   2.284  10.496   2.009 -0.0898 -0.0379 -0.0010
    1W        W62580  20.180   5.399   1.779  0.1162  0.2082 -0.2842
    1W        W62581  27.088  28.316   6.964  0.1996  0.0928 -0.2352
    1W        W62582  28.166   8.203   7.177  0.0502  0.0982 -0.0911
    1W        W62583  19.399   8.806   1.423  0.2589 -0.2726  0.2704
    1W        W62584  24.616  16.413   1.682 -0.3042  0.1109 -0.0014
    1W        W62585  16.490  13.750   7.465  0.0305 -0.3696  0.1325
    1W        W62586  27.533   5.935   7.907 -0.0267  0.0267 -0.2433
    1W        W62587  20.891  23.648   1.174  0.0981  0.2816 -0.1534
    1W        W62588   2.966   2.130   1.208 -0.2089  0.0722  0.0930
    1W        W62589  23.085   1.253   8.687  0.2499 -0.1826  0.0650
    1W        W62590  28.457  23.142   6.894 -0.0492 -0.2797  0.0873
    1W        W62591  14.360  22.590   7.692 -0.2661 -0.0129  0.1018
    1W        W62592   8.387   0.197   1.484  0.2216 -0.1107  0.3185
    1W        W62593   0.696  24.937   8.620  0.0517  0.1794 -0.0082
    1W        W62594  11.916  12.885   0.932  0.2361 -0.0150  0.1448
    1W        W62595  29.099  15.243   0.283 -0.1220 -0.1459  0.0999
    1W        W62596  25.790  11.820   7.946  0.1434 -0.0759  0.1756
    1W        W62597  15.544  23.585   7.573 -0.2677  0.0883 -0.0404
    1W        W62598   4.831   4.446   7.733 -0.3459  0.0860 -0.0576
    1W        W62599  26.572   6.960   7.703  0.1446  0.1946 -0.1829
    1W        W62600   6.963   7.822   1.757 -0.1092  0.0127 -0.5168
    1W        W62601  23.541  16.841   5.480 -0.1347  0.0415 -0.2711
    1W        W62602   4.897  29.367   7.620  0.1872  0.0089 -0.0727
    1W        W62603  21.475  20.499   0.129 -0.2528 -0.0181  0.1791
    1W        W62604  20.389  21.873   0.993  0.1441 -0.1040 -0.0517
    1W        W62605  10.890  26.449   2.575  0.3139  0.0171 -0.0830
    1W        W62606   4.634  27.051   8.313 -0.0424 -0.1394 -0.1705
    1W        W62607  10.107  22.399   1.632  0.2909  0.1190  0.1254
    1W        W62608  23.408   7.762   8.169 -0.0784 -0.1415 -0.0377
    1W        W62609   7.112  22.448   0.601  0.2554  0.1796  0.0016
    1W        W62610  18.941   5.745   6.868 -0.2712 -0.1233 -0.4824
    1W        W62611  18.809  19.696   1.249 -0.3324  0.0568 -0.2394
    1W        W62612   3.381  22.194   8.261  0.0275 -0.0992 -0.0061
    1W        W62613  20.006   5.670   3.027  0.0901 -0.2177  0.0648
    1W        W62614   6.455  28.683   6.666  0.0623  0.1562  0.0113
    1W        W62615   9.340   6.733   1.391  0.1479  0.1975 -0.0265
    1W        W62616  10.628  10.186   6.756 -0.0335 -0.0347 -0.1600
    1W        W62617  24.548  28.115   9.198 -0.2205 -0.1589 -0.4363
    1W        W62618  29.219   6.823   2.130  0.2234 -0.1227  0.1992
    1W        W62619   5.318  18.371   6.886 -0.0644  0.2106  0.0678
    1W        W62620  14.414  16.793   0.517 -0.1754 -0.2044 -0.0504
    1W        W62621   1.047   4.705   6.154  0.2898  0.0917 -0.1424
    1W        W62622  16.209  19.987   2.341 -0.2496  0.0376 -0.1050
    1W        W62623  30.219   6.361   2.887  0.2763  0.0695  0.0453
    1W        W62624  30.031   0.660   2.413 -0.1251 -0.1562 -0.2589
    1W        W62625   5.091  28.912   8.926 -0.1941 -0.0359 -0.1130
    1W        W62626  23.198  22.556   0.684  0.0898 -0.1454 -0.0831
    1W        W62627  19.171  22.403   6.538 -0.1825 -0.0971  0.1093
    1W        W62628  20.231  19.097   5.806  0.0283 -0.5495  0.0703
    1W        W62629   5.137   1.314   8.437  0.0597 -0.3015  0.3960
    1W        W62630  30.316  26.052   1.311 -0.0502  0.1525  0.1047
    1W        W62631  17.261   5.732   0.626 -0.0735 -0.0441  0.3782
    1W        W62632   4.279  18.546   0.692  0.2448  0.2566 -0.0048
    1W        W62633  22.738   1.269   0.419 -0.1191  0.2942  0.3091
    1W        W62634  20.128  16.691   7.397  0.1015 -0.2965  0.0897
    1W        W62635  28.293  21.006   9.111  0.0463 -0.1645  0.0706
    1W        W62636  29.067  16.738   0.177 -0.1206 -0.4035 -0.0727
    1W        W62637  20.192  11.616   1.626  0.0115  0.1949  0.1421
    1W        W62638  27.838  27.081   2.189 -0.0355 -0.0455 -0.0348
    1W        W62639   7.298   8.237   8.885  0.1023  0.1008  0.0997
    1W        W62640  25.546  18.345   1.271 -0.0507 -0.0011 -0.3014
    1W        W62641  17.662  28.452   8.739  0.2660  0.0844  0.4082
    1W        W62642  17.801  12.940   0.936  0.0509  0.3791 -0.3592
    1W        W62643  16.801   0.159   2.081  0.0722 -0.2196  0.1700
    1W        W62644   5.522   1.522   3.453 -0.0686  0.0823 -0.0101
    1W        W62645  26.409   2.202   8.326 -0.3020  0.2092  0.1852
    1W        W62646   7.629   9.900   8.064 -0.0228 -0.0093 -0.1711
    1W        W62647  27.886  10.709   6.809 -0.3033  0.1154  0.1767
    1W        W62648  20.456  21.009   6.657 -0.1140  0.1799  0.0288
    1W        W62649  24.931  10.527   7.618 -0.0425 -0.0152  0.0316
    1W        W62650  13.106  29.342   2.311  0.0646  0.1755  0.2070
    1W        W62651   3.227  23.129   2.763 -0.1111 -0.2641 -0.1149
    1W        W62652   5.709  23.957   7.381  0.0903  0.1379 -0.0790
    1W        W62653   5.529   9.145   0.297  0.2098  0.0698 -0.0526
    1W        W62654   0.404   4.661   3.271  0.1546 -0.3211 -0.1818
    1W        W62655   1.563   5.037   9.207 -0.3828  0.0792 -0.0659
    1W        W62656  12.088   3.750   8.937  0.1542  0.1267  0.0395
    1W        W62657  14.428   8.503   6.463  0.1413 -0.0905  0.0107
    1W        W62658   8.746   4.671   0.492 -0.3066  0.2796  0.0547
    1W        W62659  23.858   8.031   8.421  0.1012  0.1576  0.0042
    1W        W62660  30.069  22.767   1.094  0.2206 -0.1532 -0.3387
    1W        W62661   7.478  13.159   6.659 -0.1491 -0.0302 -0.2661
    1W        W62662  22.173   9.095   2.261 -0.0162  0.1941 -0.0052
    1W        W62663  19.374   5.699   1.756 -0.2297 -0.1354  0.4942
    1W        W62664   8.522  13.062   0.079  0.0745  0.0433  0.0995
    1W        W62665  17.783   4.090   2.290  0.0138 -0.0954 -0.4486
    1W        W62666  13.295  14.358   2.800  0.2373  0.0143 -0.1478
    1W        W62667  15.784  21.729   7.041  0.1822 -0.2803  0.0308
    1W        W62668  24.443   5.558   2.551 -0.0122  0.1782 -0.2133
    1W        W62669   4.907  27.492   8.077 -0.0137 -0.1028  0.1451
    1W        W62670  16.276   8.265   8.213 -0.0019  0.1872  0.1594
    1W        W62671   4.771  17.600   7.241 -0.1626  0.2972 -0.0398
    1W        W62672  29.742   4.597   8.826  0.1272 -0.1026  0.2653
    1W        W62673   9.194   2.451   2.262 -0.1084  0.2973  0.2656
    1W        W62674  25.143  28.791   7.816 -0.0019 -0.2232 -0.0507
    1W        W62675  21.485   3.830   1.997 -0.4683 -0.2018 -0.0665
    1W        W62676  26.168   2.932   2.600  0.2238 -0.4668 -0.1397
    1W        W62677  11.121  17.424   2.247 -0.2241  0.1171  0.1719
    1W        W62678  19.949  10.279   2.441 -0.0401  0.2505  0.2459
    1W        W62679  13.480  18.098   0.688 -0.0037  0.1213  0.0003
    1W        W62680  15.058   8.710   2.609 -0.0401  0.0863 -0.1801
    1W        W62681   2.140  28.945   8.053  0.0250  0.0437  0.1475
    1W        W62682  20.804  18.012   8.622  0.4315 -0.1220  0.3090
    1W        W62683  11.481  17.912   0.655 -0.2516  0.1802  0.4968
    1W        W62684   0.432  26.788   8.283 -0.0892 -0.1146 -0.3470
    1W        W62685  16.101  10.683   1.722  0.3632 -0.2363 -0.1209
    1W        W62686   3.415  24.681   1.091 -0.0883 -0.0094  0.1312
    1W        W62687   3.052  22.813   1.443  0.0969 -0.2324  0.0543
    1W        W62688  29.130  19.231   7.704  0.1345 -0.1201  0.2720
    1W        W62689   0.296  20.411   8.392 -0.2132 -0.4645 -0.2342
    1W        W62690  17.465  13.830   6.826 -0.4290 -0.3828 -0.0217
    1W        W62691   0.695   6.550   8.803  0.2405  0.3067  0.1122
    1W        W62692  15.874   0.870   6.806 -0.1504 -0.3334  0.2148
    1W        W62693  22.674  15.708   7.876  0.3063  0.0785 -0.0434
    1W        W62694  25.333   0.516   0.304 -0.1071  0.1809 -0.0486
    1W        W62695   6.962  18.345   8.399 -0.0065 -0.4220 -0.0121
    1W        W62696  17.253   9.895   0.007  0.1928  0.0651  0.2263
    1W        W62697  25.256  27.651   7.266  0.3683  0.1614  0.2404
    1W        W62698  18.495  25.528   6.895 -0.1463  0.0867 -0.0669
    1W        W62699   8.321  24.277   9.196  0.1520  0.0893 -0.0480
    1W        W62700   1.088   6.143   7.215 -0.2205 -0.1994  0.0964
    1W        W62701   3.921  22.177   0.261  0.0213  0.0148 -0.1088
    1W        W62702  22.257  12.574   1.468 -0.2922  0.1974  0.1814
    1W        W62703   8.727  29.265   7.742  0.1026 -0.1583  0.1672
    1W        W62704  10.889   5.087   2.111 -0.0556 -0.0946  0.2400
    1W        W62705  26.829  19.226   6.372 -0.1566 -0.0187 -0.0013
    1W        W62706   4.429  10.374   7.344 -0.2706 -0.2600 -0.1049
    1W        W62707   0.383  25.978   2.532 -0.0294 -0.0699 -0.1209
    1W        W62708  27.923  22.718   0.150 -0.0194  0.0083  0.1327
    1W        W62709  15.763  29.864   1.459  0.4512 -0.0961  0.0146
    1W        W62710  12.556  11.007   3.350 -0.1548  0.0944  0.2091
    1W        W62711  25.159   8.903   1.038 -0.0542 -0.3379  0.1480
    1W        W62712   3.963  20.697   0.212  0.0400  0.2454 -0.0912
    1W        W62713  12.589   8.155   8.763  0.1063 -0.0007  0.1586
    1W        W62714  25.928  21.318   7.098  0.1046  0.3480 -0.0284
    1W        W62715  12.935  12.475   7.934 -0.0798 -0.0808  0.2119
    1W        W62716   9.672  14.621   7.657  0.0540  0.2543  0.1424
    1W        W62717  29.712  12.404   8.247  0.3524 -0.0506  0.0242
    1W        W62718  21.924   6.759   8.642  0.2712  0.0452 -0.0400
    1W        W62719  23.473  24.926   9.074 -0.0548  0.0663  0.1378
    1W        W62720  26.497  14.197   9.243 -0.2878 -0.1632  0.2409
    1W        W62721  12.518  19.554   8.915  0.0011  0.2210 -0.0519
    1W        W62722  15.461  27.106   8.549 -0.0028  0.1449  0.1882
    1W        W62723  16.302   3.824   2.233  0.1587 -0.1133  0.1454
    1W        W62724   0.169  22.643   7.588  0.0284  0.0757  0.2391
    1W        W62725  16.353  10.677   0.334  0.0237  0.0543 -0.1139
    1W        W62726   0.508  23.124   0.993 -0.1323 -0.0086 -0.2701
    1W        W62727   5.260  11.645   7.020  0.1160 -0.0046 -0.0634
    1W        W62728  11.791  18.054   0.317 -0.2251  0.0237  0.2511
    1W        W62729  25.464  17.427   6.438 -0.0868  0.0284 -0.0162
    1W        W62730  23.903  21.634   7.363 -0.2208  0.0814  0.0288
    1W        W62731  15.675   8.247   6.595 -0.2892 -0.3582 -0.0669
    1W        W62732  19.404  11.895   1.330  0.1998  0.0144 -0.0272
    1W        W62733  16.310  11.168   0.663  0.0206 -0.0902  0.2412
    1W        W62734  13.587  18.140   1.720  0.0854 -0.0724  0.2741
    1W        W62735  22.250  20.733   8.933 -0.0230  0.3343  0.3048
    1W        W62736   7.192   5.426   1.986 -0.0518 -0.0432  0.1351
    1W        W62737   4.461  12.309   0.395  0.2206 -0.2020  0.1768
    1W        W62738  23.212  23.270   1.834  0.2391  0.0934 -0.1682
    1W        W62739  10.508   7.599   0.969 -0.1191  0.1969 -0.0566
    1W        W62740  12.595   0.861   1.488 -0.0469  0.4561  0.1902
    1W        W62741   7.219  11.430   0.460  0.2533  0.2054 -0.2125
    1W        W62742  21.440  26.646   8.460  0.2456 -0.2003  0.0799
    1W        W62743  15.151  15.447   3.175  0.2120 -0.1428 -0.0611
    1W        W62744  16.476  25.192   1.385  0.0744  0.0329  0.0532
    1W        W62745   4.372  23.023   0.725 -0.3169 -0.3674 -0.2557
    1W        W62746   1.237  28.634   8.958  0.3284 -0.1861  0.0993
    1W        W62747   2.624   7.325   6.285 -0.0580 -0.1152  0.3602
    1W        W62748  17.177  25.472   8.703 -0.2034 -0.0882  0.2088
    1W        W62749   6.370  22.001   7.221 -0.2591  0.2175  0.1418
    1W        W62750   1.997  11.953   8.514 -0.0463 -0.0875 -0.0582
    1W        W62751  27.302  24.681   1.968  0.0539  0.0987 -0.0510
    1W        W62752  14.035   2.838   8.176 -0.0961  0.2743  0.0514
    1W        W62753  28.315  12.873   0.873  0.1794 -0.1840 -0.2324
    1W        W62754  22.963  17.507   7.982 -0.1760  0.0189 -0.0456
    1W        W62755  19.147   8.867   0.630 -0.0938  0.0990  0.2267
    1W        W62756  15.055  21.008   8.362 -0.3220  0.1943  0.0843
    1W        W62757  17.881  26.145   8.958  0.0035  0.0733  0.0851
    1W        W62758   0.203  29.956   1.789  0.3170  0.0398 -0.0712
    1W        W62759   1.251  30.203   7.873  0.3689 -0.0660  0.0567
    1W        W62760  28.286  28.027   6.943 -0.2874 -0.3176  0.2116
    1W        W62761  10.911   8.870   2.357 -0.2583 -0.0463 -0.1626
    1W        W62762  28.818  15.415   7.434  0.1815 -0.1799 -0.0806
    1W        W62763  14.327  11.398   6.635 -0.1908  0.3305  0.0245
    1W        W62764  21.847  14.281   1.912  0.0302  0.2513 -0.1103
    1W        W62765   6.475  14.487   1.864  0.0036 -0.0053 -0.0795
    1W        W62766  17.482  10.103   1.425  0.1140  0.0191  0.1944
    1W        W62767  21.581  17.157   1.010 -0.1893 -0.3502 -0.3669
    1W        W62768   2.656  20.890   6.907 -0.0414 -0.4705 -0.0590
    1W        W62769  22.982  11.897   0.139  0.1904  0.2553 -0.1822
    1W        W62770  25.670  11.653   2.015 -0.1245  0.3019 -0.3132
    1W        W62771  29.463  29.886   8.603  0.1277  0.2218  0.0614
    1W        W62772  16.609  19.843   1.488 -0.1428  0.2739 -0.1242
    1W        W62773   2.532  18.712   9.190  0.0867  0.0879  0.0656
    1W        W62774  12.772  21.110   8.816 -0.3450 -0.2391 -0.0835
    1W        W62775  26.835  22.612   1.262 -0.1102  0.0738  0.0732
    1W        W62776  20.313  14.159   6.969  0.0025  0.3255  0.0585
    1W        W62777  17.638   4.673   2.218  0.0682  0.2186 -0.1418
    1W        W62778   7.357  25.242   6.804  0.1519 -0.2067 -0.2213
    1W        W62779  10.628   2.755   6.278 -0.1447 -0.3297 -0.0258
    1W        W62780   9.574  25.705   7.374 -0.2203 -0.0807  0.0012
    1W        W62781   2.598  20.103   0.022  0.1893 -0.2547  0.0412
    1W        W62782   2.850  10.633   0.136 -0.1962 -0.1001  0.1131
    1W        W62783  10.361  10.212   7.189 -0.0379  0.3454  0.0436
    1W        W62784   6.154  24.173   0.630  0.1757 -0.1247  0.1534
    1W        W62785  27.582   3.325   7.853  0.0349 -0.0972  0.2410
    1W        W62786   2.895  13.671   7.440 -0.1241 -0.0234 -0.4298
    1W        W62787   6.306   0.063   2.533  0.0197 -0.3763 -0.2089
    1W        W62788   5.869   1.354   1.577  0.1985  0.2827 -0.0063
    1W        W62789   8.080  15.087   0.192 -0.0578  0.0205  0.0360
    1W        W62790  20.633  29.595   7.271 -0.1354 -0.0435 -0.0533
    1W        W62791  20.048  18.100   8.341 -0.2591  0.5697 -0.1644
    1W        W62792   9.388   8.069   8.730 -0.0151  0.0158 -0.1379
    1W        W62793  13.466  23.634   0.271 -0.0854 -0.0488  0.2135
    1W        W62794  23.681   7.789   7.075  0.0356  0.3576  0.0292
    1W        W62795  16.074   3.392   0.385 -0.0282  0.1230 -0.2402
    1W        W62796   7.607  24.611   6.156  0.0105 -0.2053  0.2604
    1W        W62797  23.759  18.480   0.642 -0.0098  0.1449 -0.1751
    1W        W62798  26.815  25.685   2.963  0.2492 -0.0630 -0.2827
    1W        W62799  12.833  29.705   0.521 -0.0901 -0.1975 -0.3388
    1W        W62800  10.862  25.095   6.717  0.2289  0.0283 -0.2393
    1W        W62801  22.256  25.519   2.650 -0.2095  0.0998 -0.0965
    1W        W62802  19.797  21.246   7.797  0.2883  0.2106 -0.2680
    1W        W62803  25.511  26.428   1.721 -0.0158 -0.1454  0.3930
    1W        W62804  19.929  14.187   8.632 -0.0848 -0.1424 -0.1779
    1W        W62805  13.501  22.121   6.786 -0.2231  0.0533 -0.2319
    1W        W62806  16.745  25.251   3.262  0.0754  0.0721  0.1547
    1W        W62807  12.187  13.110   0.585  0.0844 -0.1246 -0.0828
    1W        W62808  23.829  21.509   1.195 -0.1262  0.1148 -0.0388
    1W        W62809  11.248  28.048   0.021  0.2114 -0.0379  0.0039
    1W        W62810  16.239  16.947   3.374  0.0413 -0.1656 -0.2707
    1W        W62811  21.468  23.662   7.777  0.0227 -0.1564  0.0362
    1W        W62812  14.994  30.154   3.184  0.1281  0.0307 -0.1894
    1W        W62813  12.725  11.317   8.492  0.0153 -0.0847 -0.0381
    1W        W62814  26.070  30.181   1.311 -0.0638 -0.5104  0.0307
    1W        W62815   2.305  20.993   0.502 -0.1608 -0.0462 -0.1906
    1W        W62816   3.118   2.669   1.078 -0.1092  0.0807 -0.0518
    1W        W62817  26.691   2.937   2.250  0.0525  0.0779 -0.0151
    1W        W62818   5.287  23.969   8.379 -0.0776 -0.0708  0.1087
    1W        W62819  18.170  14.992   7.511  0.0714  0.1730 -0.1201
    1W        W62820  19.609  16.919   6.782  0.3332 -0.0606 -0.0776
    1W        W62821   6.080  27.015   0.282 -0.0721 -0.1835  0.0858
    1W        W62822  29.228   2.457   3.872  0.1967 -0.0288 -0.2604
    1W        W62823  24.049  28.025   2.954 -0.2480  0.2168 -0.2821
    1W        W62824  17.560   5.474   8.948 -0.0316 -0.3143 -0.1596
    1W        W62825  12.243   0.402   1.158  0.2256  0.0456 -0.1962
    1W        W62826  16.890  30.275   2.494 -0.2687 -0.0065 -0.1287
    1W        W62827  20.467  16.265   0.438  0.2136 -0.3659  0.0284
    1W        W62828   7.576  10.190   7.611 -0.0470  0.0423  0.0774
    1W        W62829  13.801  24.812   0.796 -0.3810 -0.3013  0.0793
    1W        W62830  17.068  16.935   6.752  0.1396 -0.0328  0.0507
    1W        W62831  25.184  28.828   2.685  0.1666  0.0093 -0.0278
    1W        W62832  29.868   2.990   2.281 -0.2373 -0.1269  0.3875
    1W        W62833  20.597   1.328   7.811  0.1381 -0.1968  0.1419
    1W        W62834  12.574   0.692   0.243  0.0518  0.1061 -0.0543
    1W        W62835   4.282  15.588   8.827  0.0280  0.1287  0.3074
    1W        W62836  22.608   8.217   7.392  0.1269 -0.0198 -0.2199
    1W        W62837   4.311  25.911   2.524 -0.2116  0.2036  0.1306
    1W        W62838   1.424  29.794   0.056  0.0865 -0.1338  0.0182
    1W        W62839  16.734   1.391   7.990  0.0580 -0.2747 -0.0451
    1W        W62840   2.960  25.926   7.221 -0.0463  0.0132  0.0316
    1W        W62841  18.600  24.126   8.556 -0.0008 -0.0091 -0.3501
    1W        W62842   0.558  19.140   7.769  0.3780 -0.0007  0.0934
    1W        W62843   0.419  19.679   7.970  0.1062 -0.0045  0.0498
    1W        W62844   9.573  28.966   0.097  0.0126  0.0522 -0.3261
    1W        W62845  22.630  20.229   0.319  0.0822 -0.0348  0.2298
    1W        W62846  19.694  11.087   1.246  0.2495 -0.0576  0.1397
    1W        W62847   1.142  11.394   1.684  0.2640 -0.2749 -0.3818
    1W        W62848  26.451  29.566   7.425  0.1932  0.3551 -0.3200
    1W        W62849  24.083  24.720   6.467 -0.2054  0.0763  0.1653
    1W        W62850  22.760  26.414   8.594 -0.0320  0.1176 -0.0086
    1W        W62851  28.609  20.414   0.732 -0.0405 -0.1645  0.0059
    1W        W62852  13.782  28.510   0.987 -0.2170 -0.4571 -0.3108
    1W        W62853   1.239  19.527   8.617 -0.1533  0.0456 -0.0902
    1W        W62854  19.199  13.055   7.342 -0.0492  0.0944  0.2381
    1W        W62855  11.824  21.528   1.115 -0.0608 -0.0854 -0.2455
    1W        W62856  22.181   6.446   0.891  0.1484  0.0311 -0.2449
    1W        W62857   9.020  23.384   7.341  0.1602  0.1069 -0.3547
    1W        W62858  16.166   3.487   8.719  0.1013 -0.1232 -0.2117
    1W        W62859   2.120  30.071   7.584  0.2460 -0.0965 -0.0223
    1W        W62860  24.560   6.027   2.466 -0.1760  0.1081  0.1312
    1W        W62861   0.125   4.465   0.011  0.1587 -0.0227  0.3511
    1W        W62862  10.978   8.676   0.763 -0.0133 -0.1116 -0.2569
    1W        W62863   3.120   0.285   1.910 -0.1171 -0.0154  0.2356
    1W        W62864  23.861   4.196   2.072 -0.0250  0.1096  0.0490
    1W        W62865   9.655   8.431   2.473  0.2482  0.3721 -0.0189
    1W        W62866   2.721  28.231   8.400 -0.1283  0.1542 -0.2223
    1W        W62867   3.816  24.426   7.471 -0.0897  0.0312  0.0424
    1W        W62868  28.651  30.228   7.698 -0.0783  0.1174 -0.0990
    1W        W62869  12.566  14.821   0.809  0.0201  0.0174 -0.1916
    1W        W62870  16.024  20.631   1.663 -0.2014 -0.0912  0.0556
    1W        W62871  26.623  27.083   0.175 -0.1228  0.0375  0.0871
    1W        W62872  19.841   3.735   0.291  0.2031  0.1203  0.0127
    1W        W62873  13.611  20.123   8.871  0.0358  0.2360 -0.1715
    1W        W62874   9.627   3.263   8.436  0.2288  0.1147  0.0165
    1W        W62875  14.782  29.823   2.488 -0.0400  0.1496  0.0387
    1W        W62876  18.946  22.028   8.650 -0.0448  0.1121  0.2598
    1W        W62877  21.470   4.806   7.524  0.1978 -0.0561 -0.1142
    1W        W62878   4.069   7.002   2.366 -0.0946 -0.1148 -0.0792
    1W        W62879   0.259   2.790   1.448  0.2141  0.3943 -0.0214
    1W        W62880  25.462  16.574   0.545 -0.1583  0.2708 -0.2532
    1W        W62881   3.423  28.671   1.899 -0.0312  0.0499 -0.1075
    1W        W62882  17.126   0.641   1.937  0.1868  0.1642 -0.0889
    1W        W62883   8.349  14.706   8.680 -0.0658 -0.2033  0.2095
    1W        W62884  20.300  29.117   7.853  0.2719 -0.2272 -0.0200
    1W        W62885  22.596   2.881   1.615  0.0855  0.0400 -0.0115
    1W        W62886   6.077   2.707   1.438 -0.2051 -0.2445  0.3340
    1W        W62887   4.156   8.965   8.707 -0.2172  0.0888  0.1445
    1W        W62888  29.063  16.959   8.319  0.2429  0.1552 -0.0379
    1W        W62889   4.547  12.525   0.829  0.4927  0.0843 -0.0049
    1W        W62890  29.239   7.306   1.980 -0.2482 -0.0570 -0.1341
    1W        W62891  13.486  26.748   3.475  0.2019 -0.2615 -0.2948
    1W        W62892  10.220  12.590   0.169 -0.1016  0.0745 -0.2034
    1W        W62893  18.409   5.865   7.211 -0.4611 -0.0676 -0.1643
    1W        W62894   5.107  23.352   1.579 -0.2292 -0.1451  0.3593
    1W        W62895  20.431  17.820   7.785  0.0895  0.0871 -0.1848
    1W        W62896  14.845   4.974   8.732 -0.3334  0.1078  0.0764
    1W        W62897  27.219  28.394   2.999 -0.1156  0.1136  0.1727
    1W        W62898  27.525  21.503   1.232 -0.2797  0.0027 -0.0447
    1W        W62899  19.325   1.508   1.377  0.0457 -0.2943 -0.1492
    1W        W62900  16.517   0.670   7.273 -0.1141  0.2707  0.1264
    1W        W62901  16.071   0.431   1.683 -0.3729  0.5121  0.2680
    1W        W62902   9.265   8.557   3.325  0.0410  0.4187 -0.1008
    1W        W62903   6.082   4.318   1.386  0.1167  0.3019 -0.1102
    1W        W62904  15.630  14.515   1.687  0.0832 -0.4235 -0.1036
    1W        W62905  23.140  27.462   7.424 -0.2159 -0.0566  0.1344
    1W        W62906  12.109   9.183   8.786 -0.2103  0.1006 -0.2817
    1W        W62907  20.935  28.026   0.319  0.1329 -0.1622  0.0761
    1W        W62908  10.986   0.874   7.578  0.1237  0.1149  0.1645
    1W        W62909  23.953  11.642   7.644 -0.1912  0.2442  0.0942
    1W        W62910  20.502   3.949   7.935 -0.1640  0.0740  0.5211
    1W        W62911  25.158  26.077   1.945 -0.2862  0.0430 -0.1184
    1W        W62912  17.652  14.273   2.357  0.0578 -0.1890  0.0042
    1W        W62913  15.375  26.352   7.431  0.2452  0.0740  0.0002
    1W        W62914   1.821  17.490   8.844 -0.1647  0.2023  0.0548
    1W        W62915  13.989  22.234   9.114  0.0094  0.2152  0.2438
    1W        W62916  28.375  14.739   8.628  0.2163  0.2897  0.2091
    1W        W62917  29.403   3.985   6.541 -0.4322  0.1216  0.1870
    1W        W62918  20.922  13.886   7.229 -0.2502  0.0986  0.0245
    1W        W62919   7.092  13.509   8.958  0.0156 -0.2776  0.3394
    1W        W62920  12.816   4.931   0.317  0.3221  0.2493  0.0356
    1W        W62921   0.048  24.229   2.369  0.0388 -0.0177  0.0945
    1W        W62922  22.968   4.041   8.650  0.1677  0.0474  0.2770
    1W        W62923  25.303  24.406   2.786 -0.3008  0.1887 -0.0139
    1W        W62924  16.025  23.140   8.756 -0.1384  0.1562 -0.4340
    1W        W62925  12.036   2.604   1.751 -0.1277  0.0065  0.0811
    1W        W62926  25.525  23.069   1.189  0.0552  0.0378 -0.0852
    1W        W62927   4.882  27.062   1.666  0.0815 -0.2118  0.1525
    1W        W62928  24.868   6.297   0.128 -0.0268  0.2548 -0.0342
    1W        W62929   6.700  13.984   9.056 -0.2231  0.3186 -0.0816
    1W        W62930   1.369  12.419   8.598  0.0093 -0.3746  0.0869
    1W        W62931  12.157   0.804   2.901 -0.0874 -0.2454 -0.2492
    1W        W62932   3.344  27.379   1.997 -0.0794 -0.2494 -0.0872
    1W        W62933  20.620  12.416   0.051  0.0374 -0.3578  0.0042
    1W        W62934  27.511   7.855   0.764  0.1162  0.0187 -0.4493
    1W        W62935  12.926   6.521   7.330 -0.2131 -0.0493  0.1681
    1W        W62936  22.000  17.097   0.780  0.0786  0.2410  0.3976
    1W        W62937  17.655   3.402   0.130 -0.0662 -0.0766  0.0090
    1W        W62938  20.398   4.320   3.231  0.2082  0.0819 -0.5101
    1W        W62939  12.750   1.169   0.493 -0.1565 -0.0203 -0.1681
    1W        W62940  25.052  24.888   0.053 -0.3269 -0.2377  0.1097
    1W        W62941  16.456   3.878   0.470  0.0466  0.3640 -0.0432
    1W        W62942  18.961  20.109   7.941 -0.3145 -0.0913 -0.1997
    1W        W62943  13.661   9.703   1.177 -0.1888 -0.2305 -0.4028
    1W        W62944  10.891  17.301   7.542 -0.2012  0.1392  0.1387
    1W        W62945  17.657   6.626   9.030  0.1807 -0.1142 -0.0457
    1W        W62946  17.400  15.618   9.222 -0.2407 -0.1081 -0.2300
    1W        W62947   2.813   0.096   7.252  0.3317  0.0338 -0.1262
    1W        W62948   9.740  12.616   0.380  0.0452 -0.0285 -0.0151
    1W        W62949  27.657  17.532   8.489  0.1149  0.1717 -0.1872
    1W        W62950   8.492   8.732   2.598  0.1801  0.2312  0.0989
    1W        W62951  24.028  22.044   0.985  0.3892  0.1944 -0.1068
    1W        W62952  25.304   3.701   1.984  0.0662  0.3430 -0.0233
    1W        W62953   2.594  22.460   0.307 -0.1652  0.0922 -0.2068
    1W        W62954  25.279  24.155   8.229  0.1394 -0.0183  0.0016
    1W        W62955   1.713   6.394   2.946  0.0776  0.0924 -0.0831
    1W        W62956  17.040   8.405   8.824  0.3237 -0.2073  0.0360
    1W        W62957  26.815  21.502   6.896  0.3096  0.0452 -0.0744
    1W        W62958   0.282  28.411   0.665 -0.2890  0.0456  0.1279
    1W        W62959  22.134  21.233   8.759 -0.0744  0.2282 -0.2461
    1W        W62960  14.634   6.447   9.201  0.0232 -0.1324 -0.1540
    1W        W62961  22.588   3.274   7.426  0.0586  0.0457  0.0330
    1W        W62962  20.881  24.947   7.848 -0.0107  0.0899  0.5108
    1W        W62963  25.041   9.643   8.974 -0.2635 -0.1340  0.1509
    1W        W62964   2.952   6.278   8.709 -0.3312  0.3325  0.1465
    1W        W62965  21.232  16.451   8.718 -0.0876  0.1188 -0.0190
    1W        W62966  17.267  23.254   8.770 -0.0743 -0.3778 -0.0619
    1W        W62967  20.892  22.724   6.530  0.2126 -0.0604 -0.0440
    1W        W62968  24.628   6.517   0.607  0.3061 -0.0132  0.1124
    1W        W62969  10.007  25.892   7.566  0.1563 -0.1388 -0.0183
    1W        W62970   5.128   9.819   2.058  0.1137 -0.2715  0.0096
    1W        W62971   4.417   0.036   8.788 -0.2793 -0.0875 -0.1953
    1W        W62972  11.895   6.802   7.130  0.0725  0.0660 -0.0904
    1W        W62973   0.131  18.747   1.378  0.0577  0.0917 -0.0007
    1W        W62974  19.637  16.162   8.263  0.0817 -0.0258 -0.0763
    1W        W62975  21.433   3.892   7.180 -0.3751  0.2313 -0.0096
    1W        W62976  24.499  24.477   0.076 -0.1959  0.0792  0.0625
    1W        W62977  12.116  28.725   8.132 -0.2635  0.2299  0.1186
    1W        W62978  12.768  24.055   8.135 -0.1157  0.3758  0.0240
    1W        W62979  11.571   5.616   9.195 -0.0209  0.1073 -0.0506
    1W        W62980  19.770  26.454   2.455 -0.1554  0.0405 -0.0601
    1W        W62981  19.942  16.436   0.478  0.3887 -0.3193 -0.3740
    1W        W62982   5.049  18.483   0.994 -0.1785 -0.1985  0.0533
    1W        W62983   7.539   8.377   8.161 -0.2907 -0.1735  0.0758
    1W        W62984  21.300  13.220   6.316 -0.1322  0.0933  0.0023
    1W        W62985   5.558   0.744   3.557 -0.1096  0.2566  0.2418
    1W        W62986   4.320  19.899   1.370 -0.2423 -0.1997  0.3811
    1W        W62987  21.164   8.257   6.042  0.1652 -0.2774 -0.1775
    1W        W62988  22.800   5.279   0.456  0.2188  0.2060 -0.2699
    1W        W62989  24.748  14.452   6.411 -0.0090  0.0662  0.3397
    1W        W62990  10.753  23.639   0.020  0.0266  0.1065  0.1706
    1W        W62991  12.973  18.292   0.501 -0.2032 -0.0666  0.3075
    1W        W62992   5.809  24.369   6.905 -0.1435 -0.2528 -0.2885
    1W        W62993  18.540   5.786   0.686  0.0190 -0.3444  0.0186
    1W        W62994   8.735  11.333   2.715 -0.2393  0.1942 -0.0887
    1W        W62995   9.591   5.604   8.990 -0.1421  0.0865 -0.2538
    1W        W62996   2.272  21.225   1.570 -0.3272 -0.0241  0.0715
    1W        W62997  23.614  14.270   7.351 -0.0369 -0.0988 -0.0028
    1W        W62998   3.480  26.250   2.601  0.3715  0.0136 -0.0934
    1W        W62999  20.198   1.284   8.746  0.0355 -0.3088 -0.0545
    1W        W63000   5.712  18.690   9.222  0.4012  0.1150 -0.1359
    1W        W63001  13.441   7.106   2.959  0.1036  0.0529 -0.0295
    1W        W63002  12.230   6.638   1.683 -0.1641 -0.0186  0.0583
    1W        W63003   8.125  27.431   0.106 -0.2061 -0.1841 -0.1816
    1W        W63004  17.134  22.336   1.500 -0.0302 -0.0485 -0.0276
    1W        W63005  15.698  28.609   2.772  0.0807  0.1539 -0.1062
    1W        W63006  24.308  13.166   0.894  0.0055 -0.0561 -0.0429
    1W        W63007   5.860   7.543   7.634  0.1776  0.2048 -0.1270
    1W        W63008   6.854   1.157   3.309  0.3214  0.1514 -0.1885
    1W        W63009  17.417  28.899   8.540 -0.1694 -0.3188 -0.1581
    1W        W63010   1.913  22.117   1.305  0.0593 -0.0934  0.0127
    1W        W63011  11.199  10.842   7.133 -0.2559  0.0615 -0.1259
    1W        W63012  25.772  28.688   0.152  0.3035  0.3911 -0.1285
    1W        W63013   7.078  22.591   1.135 -0.0365  0.1567  0.1180
    1W        W63014  10.475  23.154   1.071 -0.2629 -0.1295  0.3308
    1W        W63015  27.150   5.277   8.400 -0.1778  0.4296 -0.2229
    1W        W63016   0.134   3.044   1.933  0.0300 -0.3365  0.3648
    1W        W63017   3.545   6.430   8.359 -0.2753  0.0436  0.1163
    1W        W63018  18.408  19.878   6.492 -0.0561 -0.0949  0.1575
    1W        W63019  29.643   1.268   8.167 -0.0939  0.0588 -0.2342
    1W        W63020   6.535   8.645   7.810 -0.0236 -0.3783 -0.0185
    1W        W63021   5.755  11.175   0.459 -0.1139  0.3078  0.0091
    1W        W63022  29.592   3.314   9.076 -0.0551 -0.0861  0.2250
    1W        W63023  27.858  13.785   7.786 -0.2029  0.1314  0.0562
    1W        W63024   0.970   2.706   3.008  0.0548 -0.0240 -0.0737
    1W        W63025  17.627  23.032   2.417 -0.0555 -0.2079 -0.0061
    1W        W63026   9.435  21.035   1.446  0.0457 -0.1865  0.3071
    1W        W63027  23.256   0.132   7.656 -0.2723  0.0155  0.2178
    1W        W63028   7.677  15.579   0.277  0.1383  0.1447 -0.0064
    1W        W63029  14.508  12.434   3.007  0.1104  0.0260  0.0568
    1W        W63030  16.743   6.565   0.457 -0.2545  0.1685 -0.1407
    1W        W63031  18.339   1.916   7.615 -0.2225  0.1443 -0.1773
    1W        W63032  21.839   4.605   7.837  0.0807 -0.0584  0.0788
    1W        W63033   0.631  10.992   6.752 -0.1027  0.2482  0.2497
    1W        W63034  16.953  21.786   7.736  0.0990  0.2938 -0.0202
    1W        W63035   9.341  14.985   0.115  0.1395 -0.0134 -0.1180
    1W        W63036  13.012  12.928   0.145  0.0948  0.2042  0.0447
    1W        W63037   4.287  24.782   1.237  0.2906 -0.0046 -0.2564
    1W        W63038  15.572   6.541   6.261 -0.0257 -0.2192  0.2050
    1W        W63039  25.702  20.355   1.472 -0.0446 -0.3005 -0.2155
    1W        W63040  25.159   2.385   2.776  0.0138  0.3774  0.0387
    1W        W63041  13.733   5.801   2.441  0.0874 -0.0178 -0.3108
    1W        W63042  25.246  15.730   8.610  0.0590  0.2699  0.0064
    1W        W63043  21.337  20.144   7.372  0.0254 -0.2356  0.3495
    1W        W63044   3.399   7.220   0.260 -0.0024 -0.1387 -0.1238
    1W        W63045  26.812  23.723   6.718  0.1197  0.2901  0.1525
    1W        W63046  28.079   5.546   7.953  0.0880 -0.2924 -0.2063
    1W        W63047  23.384  24.607   7.081 -0.0786 -0.0524 -0.1052
    1W        W63048  13.503  26.541   6.547  0.0553  0.0628  0.1285
    1W        W63049   7.467  20.901   8.128  0.1116  0.1465  0.2149
    1W        W63050   9.944  14.557   2.897 -0.2652 -0.1265 -0.1486
    1W        W63051  26.707   7.334   0.730  0.1987  0.1920 -0.0915
    1W        W63052  24.918  25.793   7.592 -0.1400 -0.1181  0.0751
    1W        W63053  22.785  27.011   8.493 -0.0488  0.1781  0.1047
    1W        W63054  19.701  20.306   0.013  0.0409 -0.0623  0.1490
    1W        W63055  26.153  25.253   7.959 -0.0299  0.3307  0.0144
    1W        W63056   7.698   9.332   1.104 -0.0063  0.0843 -0.2082
    1W        W63057  25.008  28.184   2.441  0.1630 -0.0687 -0.2654
    1W        W63058  21.723  28.677   7.528 -0.0406  0.0654 -0.0247
    1W        W63059  18.534  25.808   0.748  0.0974  0.4969  0.1803
    1W        W63060   9.369  27.166   8.310  0.0581 -0.5018  0.0206
    1W        W63061  12.807  21.627   7.094  0.0427 -0.0071  0.2227
    1W        W63062  24.251  25.416   1.323 -0.0773 -0.0326 -0.0567
    1W        W63063   5.814  23.338   6.912  0.2341 -0.2445  0.0098
    1W        W63064  24.664  27.838   2.258  0.0982 -0.1014 -0.0470
    1W        W63065  25.377  18.954   1.564 -0.2144 -0.0735  0.0175
    1W        W63066  20.032  23.578   7.796  0.1343 -0.5214  0.1482
    1W        W63067   6.578  25.621   7.473 -0.0094 -0.1679 -0.0312
    1W        W63068  20.718  12.545   6.522 -0.3903  0.2417  0.2630
    1W        W63069   7.756  12.557   0.878  0.0224 -0.0833 -0.1423
    1W        W63070  26.619  15.844   7.842  0.3175 -0.1268 -0.2625
    1W        W63071  13.891   4.134   6.996  0.1240 -0.0066  0.0337
    1W        W63072   1.811   8.970   8.350  0.1320 -0.0960 -0.1318
    1W        W63073  19.857  26.575   1.564  0.2821 -0.1161 -0.0777
    1W        W63074  12.351  13.871   7.770  0.1574 -0.0984  0.2095
    1W        W63075  24.667   7.274   6.330  0.1956 -0.1915  0.2182
    1W        W63076   2.545  26.901   1.309  0.0608 -0.4458 -0.0428
    1W        W63077  24.958  25.445   2.508 -0.1640 -0.0525 -0.3481
    1W        W63078   1.551   3.845   8.487 -0.0432 -0.0419 -0.3173
    1W        W63079   2.847  29.112   2.586  0.0676 -0.2041 -0.2103
    1W        W63080  13.296  14.185   9.069 -0.0433 -0.0643  0.1328
    1W        W63081   4.400  20.841   8.007 -0.1826 -0.0941  0.1160
    1W        W63082  10.487  13.923   1.997 -0.0876  0.3830  0.0238
    1W        W63083   2.974   4.670   8.911  0.0568 -0.1136 -0.1418
    1W        W63084   9.021  28.813   1.745 -0.1949  0.3232  0.1918
    1W        W63085  17.491  28.854   9.069 -0.0090 -0.0973 -0.0716
    1W        W63086  10.183  24.643   8.889 -0.0857 -0.2755 -0.0946
    1W        W63087  12.751   6.779   1.619  0.2162 -0.2477 -0.0748
    1W        W63088  24.908  18.984   8.905  0.2065 -0.5655 -0.0458
    1W        W63089   5.095  26.297   8.517  0.1982  0.3344 -0.1339
    1W        W63090  23.347  17.637   1.134  0.0656  0.1070 -0.1343
    1W        W63091  23.750  17.499   0.803  0.0749 -0.0522 -0.1008
    1W        W63092   1.358  28.035   7.391 -0.0810  0.1691  0.1705
    1W        W63093  25.173  16.946   0.474  0.1517 -0.1449 -0.4498
    1W        W63094  17.439   3.029   1.058  0.2907  0.4089 -0.2108
    1W        W63095   2.041  28.378   9.145  0.4814  0.0687 -0.0273
    1W        W63096   0.591  15.792   7.322 -0.0393 -0.1870  0.1528
    1W        W63097  24.656  18.690   8.145  0.1212  0.3104  0.1564
    1W        W63098  24.727   5.964   1.621 -0.2716  0.3269 -0.0582
    1W        W63099   8.846   9.392   6.594 -0.0250  0.0516  0.2723
    1W        W63100  27.145  23.064   2.808 -0.2220  0.1172 -0.0774
    1W        W63101  25.563  24.543   8.504 -0.1544 -0.0945 -0.1870
    1W        W63102   3.344  22.347   1.441  0.0444  0.1656 -0.1007
    1W        W63103  14.759   0.539   6.231  0.0369 -0.1555  0.0868
    1W        W63104  17.292  27.343   0.366 -0.2067  0.2144  0.0992
    1W        W63105  17.500   3.709   2.492 -0.0599  0.0060 -0.0409
    1W        W63106  18.737  17.840   1.944 -0.0008  0.0373  0.2366
    1W        W63107   5.457  15.481   8.760 -0.2835  0.4204 -0.3710
    1W        W63108  21.771  14.777   3.165 -0.0539 -0.0146  0.2259
    1W        W63109   2.343  20.424   8.378 -0.2548  0.3657 -0.2464
    1W        W63110  25.717   1.623   3.293  0.1715  0.0098  0.4986
    1W        W63111  14.039  22.158   7.529  0.2662  0.0591 -0.1488
    1W        W63112   7.684   2.606   6.851 -0.0689 -0.2946 -0.1905
    1W        W63113  12.848  25.741   8.055 -0.0410  0.0445  0.1293
    1W        W63114  30.213  11.024   7.470 -0.1708  0.3669 -0.3041
    1W        W63115   0.308   6.145   8.051  0.2112  0.2396 -0.1290
    1W        W63116  22.848  11.504   8.926 -0.0201  0.0576  0.1928
    1W        W63117  24.369  24.255   2.099 -0.0983 -0.3240 -0.2438
    1W        W63118  12.750  12.091   8.291  0.0400 -0.1263 -0.0169
    1W        W63119  18.149   4.283   7.993  0.1605  0.2550  0.0070
    1W        W63120   5.837  22.151   7.060 -0.2168 -0.1550  0.1339
    1W        W63121  14.892   1.973   2.177  0.1581  0.0400 -0.1255
    1W        W63122   6.056   0.548   3.567 -0.2904  0.2303  0.2722
    1W        W63123  23.951  20.266   1.459  0.2576 -0.1934  0.0851
    1W        W63124  18.650   4.438   6.214 -0.0729  0.0268  0.0519
    1W        W63125  28.172  29.392   4.317 -0.0019 -0.0689 -0.0157
    1W        W63126  17.399  17.456   8.174 -0.0089 -0.1251 -0.2162
    1W        W63127  23.756  20.108   6.669 -0.3051  0.0800 -0.0561
    1W        W63128  21.729   7.836   6.564 -0.3326  0.2823  0.2813
    1W        W63129  12.256  22.177   1.700  0.1373 -0.3217 -0.4143
    1W        W63130   4.636  22.580   0.770  0.0673  0.0615  0.0303
    1W        W63131  16.681  13.082   6.821 -0.1288 -0.0213  0.1082
    1W        W63132  13.259   7.130   7.251  0.2964 -0.2665  0.1445
    1W        W63133  27.192   3.854   2.714 -0.4053  0.0020 -0.2177
    1W        W63134  12.836  24.967   8.824 -0.0746  0.1150 -0.1572
    1W        W63135   5.710  26.167   0.031 -0.2690 -0.0419  0.0917
    1W        W63136  21.115  16.779   1.257  0.0062 -0.1589  0.1928
    1W        W63137  25.404  14.781   1.873  0.0391  0.2664 -0.0674
    1W        W63138   8.151   1.256   1.117 -0.3093 -0.2193 -0.0559
    1W        W63139  23.496  20.870   0.704  0.3191 -0.0916 -0.1843
    1W        W63140   5.308  20.248   8.430  0.0639  0.0872 -0.2213
    1W        W63141  28.868   0.520   1.439  0.0439  0.0573  0.0320
    1W        W63142  10.348  13.471   1.163  0.0660  0.1613 -0.1742
    1W        W63143  27.148  16.242   9.011 -0.0517 -0.1769  0.0834
    1W        W63144   5.778   3.717   1.309 -0.0163  0.1248  0.0470
    1W        W63145  23.461  20.420   7.950  0.1275 -0.0941  0.0832
    1W        W63146  21.874  14.408   7.723 -0.4419 -0.0174  0.0975
    1W        W63147  10.769   9.842   2.810 -0.1051  0.0734 -0.1850
    1W        W63148  16.712   7.529   7.941 -0.1476 -0.0228  0.1068
    1W        W63149  17.519  27.481   8.227  0.0042 -0.1426 -0.0845
    1W        W63150  17.151  28.755   1.537 -0.1507 -0.1090  0.0434
    1W        W63151   1.985  19.029   6.134 -0.1790 -0.2834  0.4209
    1W        W63152  23.731  10.928   6.880 -0.1191 -0.0210 -0.1682
    1W        W63153   3.467   4.476   7.481  0.1717 -0.1636  0.0061
    1W        W63154  30.158   4.484   1.300  0.0351  0.0585 -0.4176
    1W        W63155  16.627   3.641   0.943 -0.0270  0.1700 -0.0710
    1W        W63156   2.148  19.711   6.760 -0.0418  0.0378  0.0520
    1W        W63157   5.919  12.259   0.546  0.3290  0.1446  0.2361
    1W        W63158  25.972   0.356   1.165  0.0202 -0.0643 -0.1438
    1W        W63159  26.822  22.846   7.256  0.3731  0.0256 -0.0327
    1W        W63160   4.610  24.096   0.650 -0.3037 -0.2386  0.0810
    1W        W63161  20.620   5.613   8.079  0.2594  0.0975 -0.2385
    1W        W63162   3.016  29.403   2.167 -0.0124 -0.0594  0.1522
    1W        W63163   2.670  29.431   8.168 -0.4751 -0.0427  0.0610
    1W        W63164  17.422  26.280   8.214 -0.1438 -0.2832  0.2851
    1W        W63165   7.179   3.821   7.056  0.1947 -0.0423 -0.0367
    1W        W63166  24.675  10.599   1.882 -0.1224 -0.2491  0.0621
    1W        W63167  28.072   4.673   2.141  0.5172 -0.2690  0.1401
    1W        W63168  22.565   2.848   7.750  0.1670  0.0923  0.5095
    1W        W63169  18.665   0.442   6.358 -0.3602 -0.1040  0.3513
    1W        W63170   4.515   4.644   2.343  0.0460 -0.1521  0.0312
    1W        W63171  14.884   0.314   6.709  0.2346 -0.1564 -0.1105
    1W        W63172  29.848  11.714   0.938 -0.2561  0.0762  0.0615
    1W        W63173  19.519   5.567   6.350  0.1540  0.1157  0.1801
    1W        W63174  27.313  17.794   7.669 -0.1984 -0.0650  0.0094
    1W        W63175  29.245   1.911   1.138  0.1042  0.2700 -0.0036
    1W        W63176  28.810  23.936   1.695 -0.3422  0.1331  0.0598
    1W        W63177  14.536  27.204   9.025  0.2452 -0.5960  0.0220
    1W        W63178  15.104  19.523   6.063  0.0110  0.0511 -0.0355
    1W        W63179   9.063   7.692   0.574 -0.0778 -0.1372 -0.1718
    1W        W63180  22.950  28.137   1.397  0.1467  0.1332  0.1739
    1W        W63181  18.523  17.772   7.873  0.1015  0.0754  0.0779
    1W        W63182  29.408   9.364   7.705  0.0619  0.0217 -0.0554
    1W        W63183  27.284  24.290   7.152 -0.2050 -0.0492  0.0304
    1W        W63184   5.050  24.404   8.451 -0.5948 -0.1377 -0.1012
    1W        W63185  12.653   8.734   1.536 -0.5453 -0.0555  0.0390
    1W        W63186  24.144   8.247   2.263 -0.1936 -0.0040 -0.0393
    1W        W63187  20.894  20.054   8.816  0.0324  0.0991  0.0142
    1W        W63188  12.879   8.805   8.104  0.1599  0.0940 -0.0577
    1W        W63189  24.786   8.339   0.060  0.0498 -0.1438  0.0834
    1W        W63190  23.169   6.058   9.209  0.2535  0.0749 -0.0028
    1W        W63191  19.603  13.346   6.665  0.1016  0.2783  0.1445
    1W        W63192  23.539  23.526   1.434  0.0323  0.0529  0.2621
    1W        W63193   2.581   7.526   7.645  0.4072  0.0913  0.3804
    1W        W63194  12.630  28.300   6.591 -0.1372  0.1606 -0.1411
    1W        W63195  12.003  15.436   8.871  0.0396 -0.0551  0.0119
    1W        W63196  12.385   0.764   7.368 -0.3149 -0.2269  0.2816
    1W        W63197  17.209  26.378   1.174 -0.0947  0.1148 -0.1386
    1W        W63198  22.957  24.030   6.206 -0.2853  0.1518 -0.0935
    1W        W63199  30.057  28.465   3.236  0.2880 -0.1132 -0.1836
    1W        W63200  11.457   8.199   2.683 -0.0458  0.3276 -0.1142
    1W        W63201  21.670   6.879   1.709 -0.0837  0.0384  0.1083
    1W        W63202  19.065  28.442   0.173  0.0610  0.3453  0.0976
    1W        W63203  29.565   5.319   1.253  0.0998  0.0767 -0.2565
    1W        W63204   7.397   9.044   7.277  0.3803 -0.0190 -0.2664
    1W        W63205  27.255  23.599   6.954 -0.1464 -0.1197 -0.0406
    1W        W63206   8.774  23.110   6.979  0.1478 -0.1992 -0.0121
    1W        W63207  22.771   2.204   7.068  0.1871  0.1422 -0.0604
    1W        W63208  17.411   3.751   1.165 -0.2189 -0.2918  0.0651
    1W        W63209  14.537   4.267   1.072 -0.1340 -0.1323 -0.1305
    1W        W63210  16.102  21.395   6.079 -0.0051  0.0879 -0.0375
    1W        W63211   2.911  29.478   2.916 -0.0230 -0.1760  0.1059
    1W        W63212  25.404  18.346   0.764  0.0481 -0.0200  0.0917
    1W        W63213  16.752  20.295   8.089 -0.3206 -0.1906  0.1568
    1W        W63214  24.496  10.620   0.884 -0.3607  0.0685  0.1953
    1W        W63215   8.197   0.197   1.971 -0.1475 -0.2882 -0.1732
    1W        W63216  26.274   3.049   3.140  0.1719  0.1522 -0.1976
    1W        W63217  23.510   4.188   1.539 -0.0409 -0.2285  0.0862
    1W        W63218  12.467  23.486   8.546 -0.1049 -0.1879  0.4481
    1W        W63219  29.708  13.816   0.609  0.1841 -0.0618 -0.1200
    1W        W63220  18.427  25.228   0.899  0.0017  0.1176 -0.0235
    1W        W63221  21.866   9.994   8.547  0.2946 -0.0768 -0.2303
    1W        W63222   7.312   0.681   1.225  0.0747  0.1577 -0.3132
    1W        W63223  28.822  26.652   8.805  0.1999  0.1825 -0.0444
    1W        W63224  24.476   6.968   8.885 -0.0376 -0.0601  0.0296
    1W        W63225   8.905  29.835   0.971 -0.0184 -0.0569  0.3047
    1W        W63226  19.631  23.775   7.298 -0.0756 -0.1512  0.0730
    1W        W63227  28.351  13.701   1.302 -0.1058 -0.2119  0.2365
    1W        W63228  18.067  27.741   7.975 -0.0010 -0.0976 -0.1039
    1W        W63229   7.166  11.394   1.615 -0.1583  0.4755  0.0293
    1W        W63230  11.749   4.631   2.404  0.1106  0.2953  0.2729
    1W        W63231   9.973  20.514   8.273 -0.1663  0.2811 -0.0617
    1W        W63232  17.354   9.377   1.148  0.1482  0.0825  0.2270
    1W        W63233   6.366  23.236   8.604  0.1219  0.1947 -0.0140
    1W        W63234  22.470  28.092   7.086 -0.0614  0.1456  0.0922
    1W        W63235  22.632  12.910   0.281  0.1858 -0.0196 -0.2815
    1W        W63236  16.306   3.366   6.900 -0.0314  0.1137 -0.2828
    1W        W63237  20.258  24.821   0.971  0.1075  0.0087 -0.2456
    1W        W63238  15.471  11.767   1.881  0.4045 -0.3034  0.1153
    1W        W63239   5.094  18.401   7.815 -0.1100  0.0700  0.1931
    1W        W63240  10.404   3.231   6.231 -0.2647 -0.0955 -0.0326
    1W        W63241  15.485  21.058   1.172  0.1342 -0.1399 -0.0248
    1W        W63242  21.268   8.665   2.055  0.0873  0.0683  0.1536
    1W        W63243  27.234   0.516   1.197  0.3089  0.1325 -0.2207
    1W        W63244   5.756   1.098   7.849 -0.2370  0.1334  0.1315
    1W        W63245   4.112   0.844   1.214 -0.2523  0.1979  0.0866
    1W        W63246  10.381  28.463   2.955 -0.0408  0.1482 -0.1903
    1W        W63247   4.947  22.923   7.240  0.0086 -0.0105 -0.0514
    1W        W63248  15.999   3.493   7.295  0.2059  0.2454 -0.2384
    1W        W63249  13.609  23.481   6.551  0.0053  0.2429  0.3089
    1W        W63250  24.082  14.654   1.396  0.2575 -0.2094 -0.1541
    1W        W63251  10.950  22.230   0.685  0.2092 -0.0361  0.1288
    1W        W63252  25.762   0.888   3.105 -0.1386 -0.1112  0.2969
    1W        W63253   5.007  17.330   6.891  0.0906  0.1518  0.1628
    1W        W63254  25.893   3.251   7.427 -0.3498  0.2951 -0.3726
    1W        W63255  11.519  21.845   1.387  0.1512 -0.0945  0.3315
    1W        W63256  16.416  10.894   7.579  0.1770 -0.0762 -0.0314
    1W        W63257  24.166   2.520   6.914  0.2209  0.2292 -0.1884
    1W        W63258  27.329   3.005   4.094  0.0299 -0.0921 -0.2662
    1W        W63259  30.236  25.949   0.719  0.0668 -0.0102  0.1769
    1W        W63260  15.919  18.908   1.303  0.0878  0.2223 -0.0344
    1W        W63261  17.080  28.133   3.088 -0.0619 -0.3099 -0.0544
    1W        W63262  18.915  26.816   1.128  0.2189  0.2782  0.0321
    1W        W63263   9.025  29.348   0.853  0.0370 -0.4863  0.2004
    1W        W63264  21.187  10.020   7.509 -0.0180 -0.0307  0.3224
    1W        W63265  30.300  23.250   8.452  0.2051  0.1115  0.0376
    1W        W63266  20.518  27.040   8.443 -0.0902  0.1225 -0.1081
    1W        W63267   5.718   4.891   3.213 -0.3518 -0.0348  0.1675
    1W        W63268  17.205   1.568   7.841  0.0489  0.0038  0.2794
    1W        W63269   7.005  11.045   0.777  0.0687  0.0141  0.3503
    1W        W63270  27.459   2.501   1.674 -0.0596  0.0790 -0.3157
    1W        W63271   7.275  22.305   7.024 -0.1507  0.0247 -0.0789
    1W        W63272  21.585  25.897   2.231 -0.3618 -0.2494 -0.1358
    1W        W63273   6.206   5.251   7.775  0.1496 -0.0351  0.0515
    1W        W63274   1.520   1.732   7.605  0.0957  0.0631  0.0765
    1W        W63275   1.652  26.934   3.294  0.0670  0.0573  0.0513
    1W        W63276   0.228  26.886   8.756  0.0101 -0.1272  0.2750
    1W        W63277   8.566  23.504   0.722  0.1808  0.0144  0.0140
    1W        W63278  14.295   8.100   8.251  0.2504  0.1366  0.0841
    1W        W63279   9.133  13.430   9.028 -0.1961 -0.2170  0.0962
    1W        W63280  11.581  13.423   1.742 -0.0576  0.1608  0.2063
    1W        W63281  11.451  28.565   0.147  0.0869  0.1797  0.0476
    1W        W63282  19.684  24.556   7.290  0.1576 -0.1286 -0.0209
    1W        W63283  20.005  29.289   8.329  0.1104  0.1676  0.0335
    1W        W63284  10.233  13.724   7.617 -0.0073  0.1368 -0.1305
    1W        W63285  19.020  20.661   0.417 -0.1267 -0.3085 -0.1077
    1W        W63286  22.735  11.694   1.539 -0.3079 -0.4814  0.2565
    1W        W63287  18.568   3.618   0.662 -0.2158 -0.1981 -0.1550
    1W        W63288   5.046  27.291   7.589 -0.2787 -0.2622  0.1142
    1W        W63289  25.873  28.207   8.862 -0.0326 -0.1717 -0.0303
    1W        W63290  13.089   8.550   0.693  0.0864 -0.0736  0.0353
    1W        W63291  12.926   3.676   8.051 -0.1347  0.0345 -0.1084
    1W        W63292  20.317   7.128   0.750 -0.1513 -0.0295  0.0580
    1W        W63293  17.359  16.832   7.443 -0.1558  0.1107 -0.0550
    1W        W63294  18.961  28.733   3.200 -0.1811  0.0082  0.1804
    1W        W63295  21.503   4.191   1.616 -0.2043  0.1206  0.1077
    1W        W63296   4.756   8.526   8.221 -0.0577 -0.0105 -0.1052
    1W        W63297  10.191  15.929   1.925 -0.2103  0.0320  0.0136
    1W        W63298  17.368  27.151   1.823  0.2581  0.2748 -0.0953
    1W        W63299  15.654  30.259   6.456  0.1948 -0.1415 -0.2061
    1W        W63300  23.181  23.317   7.653 -0.0385 -0.1487 -0.1130
    1W        W63301  23.825  12.297   0.155 -0.0219 -0.0110  0.1351
    1W        W63302  16.763  25.286   0.978 -0.0249  0.0471  0.1871
    1W        W63303  26.434   9.914   1.320  0.1363 -0.1532  0.0690
    1W        W63304  23.132   9.570   6.107 -0.2747  0.0490  0.0845
    1W        W63305  28.418   5.517   8.338 -0.1429  0.3240 -0.0168
    1W        W63306  11.005  11.122   2.729  0.1670 -0.0371 -0.0927
    1W        W63307  30.128  10.213   9.108  0.1854  0.0594 -0.2820
    1W        W63308  29.240   5.958   0.637 -0.2331  0.0145 -0.2340
    1W        W63309  19.188  12.568   2.524 -0.0302 -0.0141  0.1231
    1W        W63310   5.298   3.820   2.872 -0.0070 -0.0683 -0.1926
    1W        W63311  12.465  22.866   0.157  0.0663  0.0221 -0.1849
    1W        W63312  28.425   0.559   8.780 -0.4802 -0.0591 -0.2595
    1W        W63313   6.248   9.913   6.617 -0.1235 -0.1450  0.1140
    1W        W63314   0.484  21.068   1.143 -0.2022  0.0863 -0.1372
    1W        W63315  13.311   6.213   7.250 -0.3096  0.0373  0.1627
    1W        W63316  10.339   9.026   2.259  0.0373 -0.1631 -0.1916
    1W        W63317  28.068  11.009   1.042  0.2221 -0.1484 -0.0796
    1W        W63318  14.042   7.713   0.035 -0.3207 -0.1724  0.1418
    1W        W63319   2.611  21.090   9.051  0.2506  0.1488 -0.1529
    1W        W63320   3.010  11.316   0.155 -0.1027  0.0645 -0.1591
    1W        W63321  24.681   9.469   0.455  0.0002 -0.0299  0.1275
    1W        W63322  21.713   1.881   1.640 -0.2430 -0.1390 -0.1318
    1W        W63323  22.671   3.979   9.202 -0.2192  0.1182 -0.1594
    1W        W63324   0.178  11.066   0.804 -0.2814 -0.1037 -0.0680
    1W        W63325   5.301   3.859   8.187 -0.1243  0.1557 -0.0323
    1W        W63326  21.907  14.470   7.059  0.1645 -0.2505 -0.2500
    1W        W63327   3.948  22.964   1.222 -0.1818 -0.0806  0.1120
    1W        W63328  14.501  18.455   2.827  0.4302 -0.0392 -0.1811
    1W        W63329  22.780  13.650   0.985  0.0029 -0.2050  0.0474
    1W        W63330  23.998   2.191   3.441  0.0708  0.0768 -0.1495
    1W        W63331  26.571   5.554   2.106 -0.2181 -0.1131  0.0181
    1W        W63332   7.763   9.662   6.266  0.0348  0.2155  0.1586
    1W        W63333  13.099  12.163   7.175  0.0365 -0.0970  0.0766
    1W        W63334   3.553  14.570   7.398  0.0685 -0.1647 -0.1585
    1W        W63335   0.904  16.698   0.382  0.0324  0.0767 -0.1046
    1W        W63336  23.568  14.684   6.373 -0.1328  0.1885 -0.3624
    1W        W63337   5.771   9.405   8.096  0.0865 -0.0619  0.0322
    1W        W63338  29.425  13.508   8.074  0.0199  0.1855  0.0673
    1W        W63339  29.327   0.008   1.438  0.0054  0.1813 -0.0202
    1W        W63340  28.339   0.747   7.679 -0.3841  0.2897 -0.0189
    1W        W63341  17.811  13.815   2.181  0.0579  0.2798 -0.1914
    1W        W63342  19.089  27.684   8.381  0.1227 -0.2434  0.1552
    1W        W63343   9.468  10.536   8.454 -0.1081  0.0163 -0.0149
    1W        W63344  28.660  29.259   0.038 -0.0333  0.2017  0.0774
    1W        W63345   0.170  26.208   1.809 -0.2715  0.0774  0.3221
    1W        W63346  16.751   2.988   2.178 -0.0536  0.1520  0.0786
    1W        W63347  29.494  20.698   0.480  0.1226 -0.2782 -0.0202
    1W        W63348  12.044  21.830   1.440  0.1955  0.1627 -0.0127
    1W        W63349  13.063  28.238   2.257  0.2055  0.1011  0.0100
    1W        W63350  22.622  11.906   9.090 -0.2407 -0.0787  0.1225
    1W        W63351  10.532  27.939   6.537  0.1321 -0.0526 -0.1085
    1W        W63352  11.924  10.949   7.548  0.0107 -0.1750  0.0217
    1W        W63353  15.989   6.636   5.884 -0.3499  0.0692  0.1664
    1W        W63354   4.906  25.379   9.165 -0.3079  0.1897  0.0181
    1W        W63355   5.395   7.574   7.421  0.0809 -0.1156 -0.3233
    1W        W63356  29.467  26.102   8.208 -0.2579  0.2658 -0.1907
    1W        W63357   4.963  11.793   6.654  0.0198 -0.3237 -0.1609
    1W        W63358  16.694   8.861   1.008 -0.1483  0.0459  0.2729
    1W        W63359   3.910   7.690   0.766  0.0040  0.2011  0.0214
    1W        W63360  19.291  25.701   9.173  0.1039 -0.0403  0.2885
    1W        W63361   7.601  16.524   7.581  0.0271  0.0973 -0.1696
    1W        W63362  11.467  26.929   1.660 -0.0783  0.3035 -0.0953
    1W        W63363  10.711  24.658   0.672  0.0198 -0.1380 -0.2269
    1W        W63364  28.436  18.103   6.928 -0.2009 -0.0155 -0.0498
    1W        W63365  26.249  29.297   7.004  0.0313 -0.2072 -0.1237
    1W        W63366  11.013  19.291   7.541  0.2371  0.0720 -0.0149
    1W        W63367  14.653  26.689   9.191  0.2077 -0.2853 -0.4087
    1W        W63368  19.831  27.105   1.567 -0.0862 -0.1236 -0.0246
    1W        W63369  25.393  29.494   8.462  0.1094 -0.0090 -0.1239
    1W        W63370   0.667   8.689   9.039  0.0563  0.1054  0.1184
    1W        W63371  28.434   2.846   0.692  0.0589 -0.1221  0.0067
    1W        W63372  25.152  19.671   1.162 -0.0075  0.2006  0.2635
    1W        W63373  27.253   6.425   8.222  0.1963 -0.1842  0.1866
    1W        W63374   6.813   3.136   2.956  0.1357  0.0339 -0.3928
    1W        W63375  23.102   5.950   1.678 -0.1524 -0.0492 -0.2145
    1W        W63376  18.113   0.013   1.423 -0.1525 -0.0280 -0.1383
    1W        W63377  12.146   9.273   7.540 -0.1044  0.1440  0.0991
    1W        W63378  12.108   9.714   1.104 -0.2564  0.1114  0.1566
    1W        W63379  21.091   5.699   9.007  0.2270  0.1361  0.2116
    1W        W63380  21.910   8.979   8.206  0.1560 -0.4655  0.0305
    1W        W63381  10.994  14.080   0.117  0.0957  0.0184  0.1901
    1W        W63382   1.155  11.425   9.111  0.0513  0.0175  0.3493
    1W        W63383  28.011  26.789   6.752 -0.1364  0.0369  0.0502
    1W        W63384  28.022  15.959   6.732  0.1131 -0.0752  0.1548
    1W        W63385  14.346   8.212   7.461 -0.0516  0.0114 -0.0759
    1W        W63386   9.341  18.262   8.614 -0.0728 -0.2109 -0.1427
    1W        W63387  23.581  15.942   1.818  0.1906 -0.1264 -0.0603
    1W        W63388  17.367  10.869   2.009 -0.2435  0.1951 -0.1111
    1W        W63389  23.052  16.210   0.604  0.2054 -0.2217 -0.1526
    1W        W63390  15.758  14.062   3.487  0.0637  0.0716 -0.0635
    1W        W63391  14.348   9.614   8.746 -0.0583 -0.1638 -0.0722
    1W        W63392  12.705   6.184   6.681 -0.1919  0.5387 -0.3630
    1W        W63393  23.772  19.738   1.372 -0.1997 -0.2995  0.1163
    1W        W63394  25.942  27.708   8.952  0.0418  0.3272 -0.1099
    1W        W63395  14.506  12.466   7.483  0.0988  0.3961  0.0370
    1W        W63396  27.245  13.345   8.420  0.0627  0.0290 -0.0996
    1W        W63397  21.151  19.602   1.967  0.2112 -0.2851  0.1416
    1W        W63398  19.965   6.841   7.808 -0.1612 -0.1327  0.1003
    1W        W63399  20.197   0.547   8.083  0.0076 -0.1368 -0.3263
    1W        W63400  21.356  29.679   2.848  0.1440  0.2604 -0.0024
    1W        W63401  18.504  11.480   7.732 -0.1581 -0.2084  0.1213
    1W        W63402  13.706  23.133   8.119  0.1849  0.0805 -0.0138
    1W        W63403  24.240  17.667   1.893 -0.2065  0.1024  0.2440
    1W        W63404  13.566  13.626   2.335 -0.0643 -0.0374  0.3869
    1W        W63405   0.962  13.278   8.440  0.1012  0.1115  0.2967
    1W        W63406   8.461  21.163   1.516 -0.0891  0.0339 -0.1100
    1W        W63407  14.124  30.092   2.962 -0.0384  0.1674 -0.1227
    1W        W63408  14.155   4.513   6.796  0.2077  0.0659  0.0055
    1W        W63409   6.879  16.754   1.974 -0.1988 -0.0928 -0.1578
    1W        W63410  15.439  18.942   1.852 -0.2054 -0.0397 -0.1004
    1W        W63411   8.902  19.211   1.699 -0.0691  0.0935  0.0347
    1W        W63412  21.406   4.207   8.075  0.0290 -0.0827  0.0155
    1W        W63413   8.600  11.276   6.958 -0.1150 -0.0270 -0.1778
    1W        W63414  15.883  23.180   6.822 -0.5300  0.1998 -0.2991
    1W        W63415  17.419  14.069   0.805 -0.2433 -0.2095 -0.1850
    1W        W63416  24.668  17.650   1.589  0.1195  0.0948 -0.1011
    1W        W63417  11.627  10.005   8.843  0.0725 -0.2363  0.0084
    1W        W63418  15.337  21.730   6.790  0.1121 -0.1092 -0.0771
    1W        W63419   6.968  25.891   1.380 -0.3090 -0.0868  0.0477
    1W        W63420  13.967  13.503   8.572 -0.1174 -0.0820 -0.1932
    1W        W63421  15.463  13.696   3.283 -0.0953 -0.0582 -0.1154
    1W        W63422  25.205   5.938   7.551 -0.0068  0.2986  0.1108
    1W        W63423  15.945  30.204   9.116  0.2027  0.1337  0.5157
    1W        W63424  24.148   7.514   7.759  0.1741 -0.0501 -0.1345
    1W        W63425   4.693  23.029   7.672  0.0419  0.1166  0.1307
    1W        W63426  12.605  21.987   9.086  0.0841  0.2858 -0.2732
    1W        W63427  28.998   6.663   9.020 -0.1068 -0.2019  0.1626
    1W        W63428  25.967   8.462   6.903 -0.1185  0.2869 -0.0926
    1W        W63429   3.091  16.521   1.514 -0.0310  0.0561  0.0626
    1W        W63430   6.597   0.450   2.275  0.0512  0.0557 -0.1736
    1W        W63431  19.719  20.588   8.429  0.0358  0.0600  0.0983
    1W        W63432  28.016  12.771   0.373 -0.0806  0.0934  0.1180
    1W        W63433   9.546  24.269   8.124 -0.0915  0.0542 -0.0516
    1W        W63434   4.398  11.294   7.998 -0.0010  0.1869 -0.0069
    1W        W63435   1.197  29.117   1.258 -0.2893 -0.1361  0.0047
    1W        W63436  24.645  26.879   7.966 -0.2021  0.0943  0.0862
    1W        W63437   9.695  25.957   2.098  0.0804 -0.0383 -0.3272
    1W        W63438  13.466  16.390   3.096 -0.1510  0.2952  0.2972
    1W        W63439  27.601   5.899   8.745 -0.2535  0.0121  0.0268
    1W        W63440  10.543   0.762   8.406  0.1130 -0.1498 -0.3327
    1W        W63441   4.590  28.275   9.152 -0.2379 -0.1110  0.1954
    1W        W63442   1.815  22.595   8.616 -0.0506  0.1772  0.0280
    1W        W63443  27.999   3.922   0.783 -0.1443 -0.1902  0.1019
    1W        W63444   0.571  22.348   0.136 -0.1575  0.2417  0.0326
    1W        W63445  19.857  25.913   6.911 -0.1513  0.0553 -0.1902
    1W        W63446   0.480  16.136   2.411 -0.0977  0.1844  0.0212
    1W        W63447  10.229   9.168   0.128  0.2270 -0.0544  0.0572
    1W        W63448   4.104  30.093   1.941 -0.2516  0.0938  0.2452
    1W        W63449   8.587  11.735   1.910 -0.1084  0.3580  0.0028
    1W        W63450   5.198  13.231   1.198  0.2311 -0.0722  0.0867
    1W        W63451  26.109  10.954   7.555  0.1665  0.1783 -0.1219
    1W        W63452   1.502  25.613   2.439 -0.0763 -0.1355  0.0051
    1W        W63453  24.971  14.954   1.880  0.2416  0.6398 -0.0867
    1W        W63454  11.076   1.073   0.436  0.2232 -0.1986 -0.0436
    1W        W63455   4.667   0.849   9.017  0.0775  0.1211  0.0088
    1W        W63456  24.859  24.620   5.966  0.3263 -0.0732 -0.0540
    1W        W63457   7.929  12.079   1.864 -0.2813 -0.1225 -0.7589
    1W        W63458  19.642   2.291   0.020 -0.1902  0.3051  0.1481
    1W        W63459   6.537  11.337   7.723  0.2560  0.0583 -0.1100
    1W        W63460   2.631  24.824   1.221  0.2132 -0.0727  0.3790
    1W        W63461   6.444   5.426   3.344 -0.0691 -0.1042 -0.1988
    1W        W63462  16.179  29.880   8.626 -0.1983  0.2649  0.1519
    1W        W63463  23.920   7.130   2.240  0.1562  0.0719 -0.4628
    1W        W63464  12.968  28.542   6.937  0.1345  0.1443  0.1762
    1W        W63465  22.128   2.385   7.720  0.1591  0.0652 -0.0817
    1W        W63466  14.731  27.673   8.887  0.1040 -0.2500  0.1541
    1W        W63467  11.512  23.434   6.259 -0.2027  0.0913  0.1380
    1W        W63468  25.642  21.620   0.471  0.3178  0.3493  0.0923
    1W        W63469  18.724  29.721   1.656 -0.0921  0.4423  0.0835
    1W        W63470  21.998  20.483   0.103 -0.1706 -0.1547 -0.1742
    1W        W63471   8.706  21.105   8.255 -0.2400 -0.0620  0.0356
    1W        W63472  17.334  26.197   3.047  0.3885  0.3494  0.0978
    1W        W63473   1.010   1.659   1.198 -0.0168  0.3099  0.1089
    1W        W63474  14.535  16.419   8.110 -0.0649 -0.0261  0.0093
    1W        W63475  22.023  27.671   7.720  0.1529  0.0743 -0.0959
    1W        W63476  15.842  23.002   6.285 -0.2393 -0.2500  0.2495
    1W        W63477  18.614  20.765   1.135  0.0986  0.1020 -0.4485
    1W        W63478  14.163   8.216   6.905 -0.1622  0.0811 -0.2087
    1W        W63479  18.065   1.272   0.270  0.1999  0.0943 -0.0163
    1W        W63480  29.920  24.943   0.583 -0.1526  0.1989  0.2529
    1W        W63481  17.689  11.014   0.746  0.1460 -0.3666  0.0213
    1W        W63482  24.892  21.894   1.997 -0.0304 -0.3415 -0.0095
    1W        W63483   1.272  18.656   7.563  0.0272 -0.0284  0.0083
    1W        W63484  24.612   2.504   6.877  0.3413  0.2159 -0.1543
    1W        W63485  15.762  22.920   8.305  0.0579 -0.0996  0.0740
    1W        W63486  15.655  27.526   7.170 -0.0896 -0.0204 -0.3720
    1W        W63487  26.750   9.109   8.274 -0.1249  0.1128 -0.1128
    1W        W63488  21.397   4.969   8.571 -0.0129 -0.0256 -0.2094
    1W        W63489   9.579  17.582   2.640 -0.3950  0.1978 -0.1561
    1W        W63490  10.654  24.171   0.990 -0.1743  0.3677 -0.0906
    1W        W63491  17.687  23.352   9.008 -0.2168  0.2742  0.4126
    1W        W63492   1.861  15.385   1.063  0.1449 -0.1299 -0.0299
    1W        W63493  10.397  24.612   2.053 -0.3951 -0.0855 -0.1614
    1W        W63494   9.124  24.736   8.107 -0.0104 -0.2834  0.1938
    1W        W63495  12.900   6.462   8.398 -0.4039 -0.0289 -0.0927
    1W        W63496  15.953  26.394   2.684 -0.1694 -0.1007  0.0872
    1W        W63497   3.789  11.257   6.185  0.0785 -0.1581 -0.2966
    1W        W63498  29.797  11.409   7.775 -0.0357  0.0168 -0.2508
    1W        W63499  29.802   5.098   8.780 -0.2270  0.4144  0.2875
    1W        W63500  24.768   1.473   9.236  0.0060  0.1651 -0.2929
    1W        W63501  24.711  19.948   8.937 -0.0177  0.2628  0.3069
    1W        W63502  16.544  17.370   2.139  0.1983 -0.1412  0.0077
    1W        W63503  15.794   4.285   7.900 -0.3481  0.0040 -0.2068
    1W        W63504  11.920  28.132   8.653 -0.0045  0.1533  0.0178
    1W        W63505   3.719  16.542   0.930  0.2772 -0.0754  0.0911
    1W        W63506   4.970   2.103   6.879 -0.0877 -0.2508 -0.2408
    1W        W63507  27.375  18.537   1.007  0.2671 -0.2686 -0.0397
    1W        W63508  15.769  27.748   0.441 -0.3798  0.1893  0.2365
    1W        W63509  24.212   2.509   2.359 -0.2182 -0.3229 -0.1380
    1W        W63510  24.474  26.006   7.941 -0.3199  0.4102  0.1026
    1W        W63511  16.304   8.123   0.902  0.1344  0.0664  0.1008
    1W        W63512   4.838  17.986   8.070  0.1274  0.1046 -0.1641
    1W        W63513  16.981  27.439   7.442  0.1380  0.2073 -0.0326
    1W        W63514  15.490   4.546   8.224  0.0240  0.1087 -0.2827
    1W        W63515   7.607   7.995   7.786  0.0657 -0.0647  0.0406
    1W        W63516  21.382  22.785   6.743  0.0953 -0.0607 -0.1336
    1W        W63517  14.159  29.859   7.628  0.0236  0.3600  0.0915
    1W        W63518  23.684  19.486   7.726  0.0693  0.1315 -0.1118
    1W        W63519   0.250  10.858   0.314 -0.0452  0.1124  0.1173
    1W        W63520  27.060  23.269   7.426 -0.0642 -0.2226  0.0824
    1W        W63521   4.991   2.106   7.469  0.1010  0.2838  0.0055
    1W        W63522   8.640  18.055   6.597 -0.0296  0.0917  0.1033
    1W        W63523   8.263  26.136   1.555  0.0257  0.0421  0.0313
    1W        W63524  11.842  17.465   8.574  0.0826  0.1713  0.1004
    1W        W63525  24.160  29.684   1.494 -0.0016  0.1802  0.2883
    1W        W63526  24.033  25.449   8.514 -0.0456 -0.0822  0.0078
    1W        W63527  25.874  18.476   9.135  0.2082 -0.0502 -0.3878
    1W        W63528  23.258  11.326   6.998 -0.2916  0.1098 -0.1200
    1W        W63529  16.603  23.340   1.709  0.2498 -0.1799  0.3307
    1W        W63530  15.572  10.414   9.182 -0.0178  0.1838  0.2191
    1W        W63531   7.847  13.647   8.281 -0.0377  0.1069  0.0504
    1W        W63532  21.329  19.763   8.742 -0.0839 -0.0339 -0.2190
    1W        W63533  16.854  23.064   7.677 -0.1935  0.0444 -0.0764
    1W        W63534   4.540  27.571   8.501 -0.1069  0.0303  0.0528
    1W        W63535  14.371  16.356   0.255  0.3914  0.2095  0.1178
    1W        W63536  19.176   6.022   7.649 -0.0738 -0.2550 -0.2830
    1W        W63537   0.740   6.156   7.758 -0.3485 -0.0946  0.1023
    1W        W63538   2.265   6.698   2.293 -0.0701  0.0555  0.5252
    1W        W63539   6.439  18.697   7.122 -0.3426  0.1793 -0.0213
    1W        W63540   5.787  19.746   6.938 -0.0306  0.0988  0.0098
    1W        W63541  14.078   1.288   0.965 -0.0441 -0.1368  0.2648
    1W        W63542   5.389  18.074   8.014 -0.1363 -0.0381 -0.0177
    1W        W63543  10.138  11.879   2.377  0.2125  0.3513 -0.2517
    1W        W63544   1.343  30.124   8.852 -0.2732 -0.1335 -0.1059
    1W        W63545  15.902  23.276   8.011 -0.0562  0.1176  0.7471
    1W        W63546  23.866   2.675   3.533 -0.2458  0.0097 -0.1126
    1W        W63547   7.647  19.548   1.633  0.2625  0.0067  0.1384
    1W        W63548  16.733  18.004   8.449  0.0891  0.1278 -0.1067
    1W        W63549  25.611   1.724   1.136  0.0708  0.1215  0.3286
    1W        W63550  17.818  24.648   1.024 -0.0772  0.2016  0.0261
    1W        W63551  11.798   9.404   2.562  0.1978  0.2807 -0.1612
    1W        W63552  19.732   3.716   2.490 -0.2018  0.2140 -0.2926
    1W        W63553  17.165  25.384   1.367  0.0281 -0.1186  0.0654
    1W        W63554  17.301   0.429   7.606  0.0690 -0.3236  0.2151
    1W        W63555  20.661   3.707   0.672 -0.0841 -0.2041  0.2403
    1W        W63556  11.451  26.840   5.944 -0.0430  0.2212 -0.1733
    1W        W63557   1.323   8.162   7.995  0.3448  0.2566  0.0409
    1W        W63558  14.414  27.595   2.440  0.1837  0.0018 -0.0370
    1W        W63559   4.288  25.471   0.777  0.1666  0.0540  0.1342
    1W        W63560  26.261  20.620   7.565  0.1256 -0.1076  0.1657
    1W        W63561   3.834   2.827   3.629  0.0380 -0.0298  0.3054
    1W        W63562  22.322   3.917   7.908 -0.1134  0.0303 -0.1868
    1W        W63563  15.076   7.498   0.595 -0.1297 -0.0542  0.1268
    1W        W63564  20.819   7.844   7.349 -0.0173 -0.1743 -0.0526
    1W        W63565  20.676  23.900   7.184 -0.1303 -0.1177 -0.1563
    1W        W63566   8.201   4.443   1.385  0.2480 -0.0268  0.0724
    1W        W63567  27.337  17.083   1.458 -0.0585 -0.0576 -0.0567
    1W        W63568  17.079  24.230   6.596 -0.2615 -0.1884  0.4676
    1W        W63569  14.987  26.344   2.240  0.0588  0.2506 -0.4208
    1W        W63570  22.118  11.739   5.887  0.0097  0.1547  0.3041
    1W        W63571  16.606  17.783   0.641 -0.3307 -0.0056 -0.2634
    1W        W63572  16.142  25.954   9.090  0.0786 -0.2951  0.0190
    1W        W63573  20.444  17.196   0.836 -0.0775 -0.1000 -0.0308
    1W        W63574  22.479  17.502   5.803 -0.1491  0.1721  0.3565
    1W        W63575  26.439  13.778   8.875  0.1253  0.1830  0.3477
    1W        W63576   7.744  12.854   8.673  0.2048 -0.0021 -0.2653
    1W        W63577  25.371   8.078   6.303 -0.0319 -0.1800  0.0669
    1W        W63578  30.146  17.977   1.839  0.0725  0.0133 -0.2434
    1W        W63579  19.465  16.047   7.163 -0.1011  0.2127  0.1430
    1W        W63580  10.576   8.937   9.159 -0.1374  0.1977 -0.1868
    1W        W63581   4.365  20.047   0.744 -0.0468 -0.0175  0.3051
    1W        W63582   9.899   9.353   8.128 -0.1784  0.3833  0.1253
    1W        W63583   2.897  29.602   7.755  0.1791 -0.3363  0.1558
    1W        W63584  17.727  24.501   1.831 -0.2012 -0.0801  0.0646
    1W        W63585  29.479  20.650   8.467 -0.0234 -0.0442  0.1339
    1W        W63586  23.557   6.790   1.389 -0.1819 -0.0383  0.1154
    1W        W63587  24.174   6.960   8.065 -0.0460  0.0225 -0.0886
    1W        W63588  10.159  24.830   1.662 -0.1552 -0.0282  0.1638
    1W        W63589  15.110  29.305   1.978  0.3201  0.0734 -0.0625
    1W        W63590  25.737  11.708   9.065  0.0203 -0.0363  0.2859
    1W        W63591   8.371  12.578   1.582 -0.2380  0.0135 -0.1790
    1W        W63592   6.681  25.400   0.737 -0.1873  0.1908  0.1484
    1W        W63593  29.099  11.431   7.141 -0.0871 -0.2011  0.1567
    1W        W63594  24.271  20.375   7.383  0.0071  0.2249  0.1003
    1W        W63595  27.098  16.526   0.223 -0.1504  0.0315  0.0691
    1W        W63596   8.566  19.684   8.099 -0.0520 -0.4204  0.2754
    1W        W63597   2.389   2.855   6.758  0.0327 -0.1673  0.0914
    1W        W63598  20.976  12.346   0.468 -0.0459  0.1907 -0.1218
    1W        W63599  27.824  14.998   0.319 -0.0541 -0.0846  0.0769
    1W        W63600  11.044  11.684   0.389  0.0631  0.1163 -0.0512
    1W        W63601  18.760   5.586   7.903  0.0498  0.1051  0.0340
    1W        W63602   5.755  19.145   6.006  0.3196  0.0314 -0.2792
    1W        W63603   2.601  28.741   8.042 -0.0478 -0.4880  0.0741
    1W        W63604  27.718   2.114   3.080 -0.0667  0.0301  0.0669
    1W        W63605  20.857  10.691   8.420  0.0752  0.0883  0.4137
    1W        W63606  17.053   2.802   6.455  0.2670  0.2444  0.1010
    1W        W63607  24.609   6.477   2.100 -0.1320 -0.0515 -0.0587
    1W        W63608  14.322  24.242   2.014 -0.0283 -0.0806 -0.2423
    1W        W63609   7.819  24.761   7.416  0.1726  0.1979  0.1207
    1W        W63610  18.579   2.433   9.114 -0.1369  0.3330 -0.0326
    1W        W63611  10.420   2.858   2.475  0.2542 -0.0029 -0.0957
    1W        W63612   8.972  12.332   7.625 -0.0179 -0.1792  0.2127
    1W        W63613  20.137  13.724   8.738  0.1104  0.1935 -0.0818
    1W        W63614   6.870  22.853   9.145  0.1552  0.2138  0.2713
    1W        W63615  22.224   9.068   7.535 -0.2204  0.0769  0.1572
    1W        W63616  22.961   0.912   2.712 -0.1253  0.2223  0.0836
    1W        W63617   8.751  12.693   2.041  0.1076 -0.1317  0.2320
    1W        W63618  12.878   6.662   8.867  0.1026 -0.0802 -0.0725
    1W        W63619  27.069   0.545   3.128  0.0090 -0.0372  0.3147
    1W        W63620   6.981   8.669   8.257 -0.3178 -0.2326 -0.0200
    1W        W63621  19.385  19.114   1.720 -0.2879 -0.0990  0.0779
    1W        W63622  13.324  18.542   1.467 -0.1796 -0.2934  0.0414
    1W        W63623  20.435  25.795   6.709 -0.2791 -0.2189  0.0243
    1W        W63624  10.723  20.001   1.037  0.0544 -0.0345 -0.0120
    1W        W63625  13.886  19.018   6.096  0.0243 -0.0942 -0.0103
    1W        W63626  16.097   8.202   7.350 -0.1606 -0.3130  0.1819
    1W        W63627  12.140  26.052   0.925  0.0742 -0.2614  0.1915
    1W        W63628  18.389   7.597   8.402  0.1300 -0.1055  0.3019
    1W        W63629  16.195  28.846   2.673  0.4256  0.1364 -0.1664
    1W        W63630  29.571   0.790   8.113 -0.1143 -0.0182  0.0579
    1W        W63631   9.852   6.443   0.172  0.0129  0.0314  0.0385
    1W        W63632   9.667  25.402   0.056 -0.0734  0.0478  0.0923
    1W        W63633   4.257  28.986   8.540 -0.2378  0.1039  0.3419
    1W        W63634  26.814   0.463   1.485 -0.2429  0.2254  0.0366
    1W        W63635  26.756  16.381   8.718  0.6030  0.2011  0.0922
    1W        W63636  24.282   6.284   6.730  0.0293  0.0124 -0.1206
    1W        W63637  23.106  12.949   1.694  0.6550  0.0383  0.0695
    1W        W63638   3.362  28.447   1.490 -0.3142  0.1369  0.2394
    1W        W63639  21.559  17.421   5.629  0.0084  0.3585 -0.0402
    1W        W63640  25.456   5.053   1.849  0.0232 -0.1004  0.0744
    1W        W63641  21.847   4.057   0.399 -0.1432  0.0119 -0.3290
    1W        W63642  13.038   9.543   0.831 -0.1178  0.0045 -0.1650
    1W        W63643  23.896  16.152   0.908  0.0471  0.0941  0.2021
    1W        W63644  30.171   9.841   0.161 -0.0904  0.2681 -0.0850
    1W        W63645  25.397   1.658   8.714 -0.2882 -0.0253 -0.0268
    1W        W63646   3.904  29.154   4.108  0.1160 -0.3054 -0.0027
    1W        W63647  11.492   5.141   0.109  0.0455 -0.1344  0.1452
    1W        W63648  12.620  22.137   7.044 -0.1031 -0.0545 -0.1662
    1W        W63649   8.839   2.500   0.166 -0.0922 -0.1647 -0.2183
    1W        W63650  16.527  19.598   6.921 -0.0355 -0.1282 -0.0155
    1W        W63651  20.615  18.966   0.302 -0.1822  0.0480  0.1262
    1W        W63652  25.971  26.159   1.207 -0.0567 -0.0701  0.1888
    1W        W63653  13.967  11.483   2.637 -0.1568 -0.1223 -0.2230
    1W        W63654  22.592   7.797   1.872  0.0371 -0.2640 -0.1097
    1W        W63655  18.937  20.460   8.379  0.0917  0.0891  0.1249
    1W        W63656  23.738   7.051   6.925  0.2636 -0.2087 -0.2322
    1W        W63657   2.489  28.973   1.792 -0.0649  0.1675 -0.0477
    1W        W63658  24.589   4.942   8.124  0.1891 -0.0453  0.0883
    1W        W63659  11.886   1.600   8.808  0.0672  0.1267 -0.2384
    1W        W63660   4.255  25.127   0.032 -0.1970 -0.2485  0.1567
    1W        W63661   0.700   4.335   8.495  0.0890 -0.0470  0.0000
    1W        W63662  25.561  19.647   8.000  0.4946  0.2843 -0.0718
    1W        W63663   8.341   9.393   6.809  0.0503  0.2932 -0.2737
    1W        W63664   7.765   7.917   1.134 -0.0422 -0.0622  0.1474
    1W        W63665   0.776   5.982   1.214 -0.1226 -0.0708 -0.2375
    1W        W63666  12.967   2.002   8.008 -0.1291  0.0589 -0.3070
    1W        W63667   9.231  19.263   6.430  0.0078 -0.0033  0.0467
    1W        W63668  17.146   7.658   2.381  0.1558 -0.1581  0.1251
    1W        W63669   5.776  20.576   8.267 -0.0856 -0.1565  0.0605
    1W        W63670  22.311  25.121   2.244  0.3646 -0.0784 -0.1902
    1W        W63671   4.631  26.322   7.610  0.0824  0.0323 -0.0236
    1W        W63672  21.842  11.959   7.182 -0.0295 -0.2316 -0.1042
    1W        W63673  22.851   3.526   8.961  0.0818  0.0109  0.1974
    1W        W63674  11.599   3.286   7.280 -0.0191  0.3258  0.0366
    1W        W63675  15.128  26.205   8.327  0.1112 -0.0575 -0.1214
    1W        W63676  11.177  12.580   8.110 -0.0567 -0.2360 -0.3671
    1W        W63677  19.301  13.325   0.071  0.0018  0.1292 -0.1364
    1W        W63678  10.201  23.724   8.324  0.1715 -0.1889  0.0848
    1W        W63679  29.690  11.795   9.012 -0.0619  0.3293 -0.1178
    1W        W63680  27.810   2.981   6.953  0.0644  0.0704  0.0695
    1W        W63681  10.887  19.719   0.523 -0.1644  0.3586  0.2554
    1W        W63682   8.998  10.879   0.956 -0.1599  0.0905  0.2830
    1W        W63683  23.059  23.751   1.227  0.0120 -0.0481  0.0407
    1W        W63684   6.041  24.791   1.525 -0.0971 -0.2691  0.1143
    1W        W63685   6.888  15.080   7.803  0.1807  0.0699 -0.0314
    1W        W63686  16.342  21.912   0.086  0.0289  0.2961 -0.1679
    1W        W63687  12.439  11.739   8.542  0.3485  0.2956 -0.1284
    1W        W63688  14.024  17.316   0.229  0.1047  0.0233  0.2857
    1W        W63689   0.019   0.906   7.870  0.1584 -0.0223  0.0308
    1W        W63690  16.859   7.083   8.335  0.3001  0.3138 -0.1682
    1W        W63691  27.680  14.581   7.697 -0.2313  0.0420 -0.0991
    1W        W63692   7.236  10.301   7.921  0.2206  0.1107 -0.0423
    1W        W63693  16.281  30.318   8.268 -0.3062 -0.1045 -0.1280
    1W        W63694  16.216  30.299   7.225  0.1935 -0.0497 -0.2170
    1W        W63695  28.725  24.400   7.451 -0.1201  0.0618  0.0918
    1W        W63696  27.812  22.835   0.630 -0.0681 -0.0721  0.0353
    1W        W63697  25.326   4.253   8.753  0.1720 -0.0520 -0.0413
    1W        W63698  16.403   6.068   1.218  0.2031  0.3893  0.3018
    1W        W63699   6.489   4.442   0.683  0.0787 -0.0273 -0.0460
    1W        W63700  11.276  26.987   0.526  0.0336 -0.2677  0.0681
    1W        W63701  16.834  12.366   7.634  0.0336  0.2651  0.0308
    1W        W63702   6.524  10.724   1.985 -0.0482 -0.1604  0.2330
    1W        W63703  25.406  27.137   7.264  0.1032 -0.3155  0.3273
    1W        W63704  26.271   2.241   7.754  0.0183  0.0085  0.1361
    1W        W63705  22.282   5.120   6.549 -0.2812 -0.1199 -0.1034
    1W        W63706   9.196   2.149   7.770  0.0525  0.0789 -0.0232
    1W        W63707  21.487  28.054   7.586  0.4185  0.1867  0.1239
    1W        W63708  20.010   9.855   0.816 -0.0994  0.2189 -0.1269
    1W        W63709  13.982  25.934   2.027 -0.4966 -0.2457  0.0545
    1W        W63710  22.256  20.258   6.071  0.1322 -0.0198  0.2653
    1W        W63711  16.837   6.468   5.692 -0.4505 -0.2179 -0.1340
    1W        W63712  29.495   7.445   8.772  0.1354  0.2675 -0.0053
    1W        W63713  10.161   6.459   1.724  0.1296  0.1530  0.2279
    1W        W63714  13.920  19.583   8.571 -0.0993 -0.1921 -0.2156
    1W        W63715   1.714  13.848   7.548 -0.1117  0.0289 -0.1151
    1W        W63716  20.636   2.354   8.518  0.2181 -0.4068 -0.1289
    1W        W63717  21.253  20.868   1.139 -0.0342 -0.1285  0.1464
    1W        W63718   6.679  21.027   5.154 -0.0835 -0.0674  0.0825
    1W        W63719  22.306  26.205   8.517  0.0202  0.4150 -0.0021
    1W        W63720   4.553  10.544   0.379 -0.1508 -0.1007  0.2008
    1W        W63721  17.624  25.842   8.423  0.1347 -0.1219  0.2437
    1W        W63722   1.291  25.962   2.826  0.0698  0.1393  0.3627
    1W        W63723   8.524   3.689   7.834 -0.3507  0.2938 -0.2789
    1W        W63724   0.266  16.728   6.602  0.1636  0.0092 -0.0342
    1W        W63725   6.465  13.589   9.048  0.0749  0.1901 -0.0261
    1W        W63726  16.373   2.135   7.665 -0.0356  0.3483 -0.0887
    1W        W63727   8.862   6.949   7.832  0.0064 -0.1680 -0.0421
    1W        W63728  12.613  11.969   1.993 -0.0091  0.0464  0.0513
    1W        W63729  11.837  19.561   5.482  0.2065  0.1794  0.2345
    1W        W63730  25.506  10.280   6.515  0.1828  0.3923 -0.0623
    1W        W63731   3.821  21.909   1.218 -0.1317 -0.2238  0.2878
    1W        W63732  13.925   4.182   1.957 -0.0937  0.0305  0.1300
    1W        W63733   3.348   1.272   0.185 -0.1349 -0.3196 -0.0082
    1W        W63734  20.030   8.813   7.764  0.0904  0.2239 -0.0324
    1W        W63735  17.188   3.280   7.898 -0.1294 -0.5819  0.0541
    1W        W63736   2.279   7.970   1.007 -0.0489  0.2125 -0.0765
    1W        W63737  16.556  23.190   6.032 -0.0925 -0.0506  0.0141
    1W        W63738  15.412   4.867   1.147 -0.0607 -0.5157 -0.1511
    1W        W63739  26.337  29.051   3.839 -0.2306 -0.0005 -0.1126
    1W        W63740  17.080   1.960   1.269  0.0340  0.0787  0.0077
    1W        W63741  15.524  26.255   0.334  0.0981  0.2231 -0.0337
    1W        W63742  22.177   5.012   7.027  0.1283  0.2678  0.1172
    1W        W63743  24.690   6.311   7.664 -0.1221  0.1467 -0.0481
    1W        W63744  29.141   2.689   8.965  0.0752  0.2054  0.2455
    1W        W63745  27.103  26.153   7.727  0.2512 -0.2151 -0.1326
    1W        W63746  28.076  29.878   8.344  0.1472  0.1862 -0.2230
    1W        W63747  28.370  11.359   6.352 -0.0492  0.0848 -0.4234
    1W        W63748  14.476  10.836   6.998  0.2138 -0.0524  0.0651
    1W        W63749  24.426  29.152   2.783  0.0022 -0.0916  0.1263
    1W        W63750  21.727   6.357   1.773  0.1851  0.1765  0.3555
    1W        W63751  19.141   5.200   1.907 -0.1640  0.6370  0.1036
    1W        W63752  17.660  25.383   1.383  0.0318  0.0817 -0.1871
    1W        W63753  10.802  17.246   1.949 -0.1408  0.0497  0.0686
    1W        W63754   4.552   9.756   6.770  0.3814  0.0295  0.1654
    1W        W63755  14.531  17.481   8.007 -0.4224  0.1261  0.1528
    1W        W63756  29.764   9.178   2.948 -0.0439 -0.0304  0.0542
    1W        W63757  17.542  20.620   8.268 -0.3602  0.0994 -0.2274
    1W        W63758  16.576   0.486   8.366 -0.2030 -0.0458  0.0362
    1W        W63759   6.151   3.670   8.366  0.1215  0.1955 -0.1078
    1W        W63760  26.494  19.868   7.416  0.0316 -0.1782 -0.1794
    1W        W63761   9.573   6.565   8.919  0.4352  0.0865 -0.1124
    1W        W63762  27.147   6.747   1.960  0.2174  0.0319  0.1584
    1W        W63763  27.441   7.847   1.262 -0.1061  0.0903  0.0010
    1W        W63764  18.531  26.467   1.327  0.0832  0.1202 -0.1548
    1W        W63765  22.384  30.288   8.478 -0.2537  0.1095 -0.1728
    1W        W63766  23.657  12.256   1.736  0.2324  0.3629 -0.0780
    1W        W63767  22.854  24.834   7.499 -0.2209 -0.1381 -0.0528
    1W        W63768   8.108  22.448   7.821 -0.0302  0.1801  0.0371
    1W        W63769  29.274  23.582   8.748 -0.1118  0.1072  0.2478
    1W        W63770   4.041  26.706   0.809  0.1447  0.1543  0.1160
    1W        W63771  13.408   4.857   6.213  0.1303  0.1974  0.1804
    1W        W63772  24.167  27.864   2.166  0.5204 -0.1052  0.1488
    1W        W63773  16.612  27.160   1.395 -0.4932 -0.0284  0.0856
    1W        W63774  26.236  26.324   7.314 -0.1368 -0.1340 -0.1528
    1W        W63775   0.147   7.763   8.396 -0.0328  0.1436 -0.0094
    1W        W63776  16.603   5.029   1.509 -0.1180  0.0955  0.0074
    1W        W63777   3.476  10.269   8.347 -0.0463 -0.2256 -0.3596
    1W        W63778   3.032  29.660   9.051 -0.3148  0.0302  0.1403
    1W        W63779  24.693  24.809   2.085 -0.2480  0.0490  0.2951
    1W        W63780   6.878  16.840   0.525 -0.1499  0.1956 -0.4868
    1W        W63781  21.244   6.831   1.272  0.0919 -0.1023 -0.0153
    1W        W63782   7.259   7.099   1.623  0.0968 -0.0395 -0.2770
    1W        W63783  16.775  30.076   6.596 -0.0507  0.2200 -0.1307
    1W        W63784  13.877  17.645   1.033  0.2664  0.0408 -0.2434
    1W        W63785   5.853   0.929   0.734 -0.0704 -0.0096  0.0789
    1W        W63786  11.213  19.633   7.129  0.0651  0.1775 -0.0670
    1W        W63787  21.167   0.863   9.000  0.4160 -0.1264 -0.1782
    1W        W63788  18.314  11.211   6.429 -0.2252 -0.0528 -0.1001
    1W        W63789  24.701  18.669   2.294  0.2911  0.0808 -0.1329
    1W        W63790   8.730  19.615   0.706 -0.2297  0.1619  0.2810
    1W        W63791  26.536  21.880   8.918  0.0406 -0.0537 -0.0800
    1W        W63792  18.204  20.594   5.960  0.1085 -0.1124  0.0443
    1W        W63793   6.169  23.215   1.643 -0.2855 -0.2015 -0.0983
    1W        W63794  16.382  12.852   8.940 -0.0967  0.0542 -0.0221
    1W        W63795  22.063   7.368   7.417 -0.0624  0.0935 -0.0749
    1W        W63796  18.784  30.197   0.656  0.1774  0.1390 -0.0130
    1W        W63797  20.605   5.208   7.601  0.1063  0.3423 -0.1273
    1W        W63798  10.694  16.644   2.767  0.1837  0.0607  0.0072
    1W        W63799  15.320  27.904   1.655 -0.4351  0.1368 -0.1276
    1W        W63800  15.465   6.042   6.038 -0.0347 -0.0209 -0.0374
    1W        W63801  16.492   9.206   7.469 -0.1201 -0.0432  0.0246
    1W        W63802  16.215   0.397   8.770 -0.1690 -0.0792 -0.3259
    1W        W63803  16.683  21.041   7.981  0.0071 -0.0296 -0.0430
    1W        W63804   8.960  15.112   7.483 -0.2142 -0.1347  0.0952
    1W        W63805   8.792   9.059   6.959 -0.0687 -0.2651 -0.2370
    1W        W63806  15.557  29.279   8.265  0.1796  0.2280 -0.1772
    1W        W63807  23.962  12.344   6.882 -0.1799  0.0314  0.1517
    1W        W63808  18.657  12.643   8.326 -0.0594 -0.1065 -0.0633
    1W        W63809  27.671  17.725   6.614 -0.0054  0.3439 -0.1206
    1W        W63810  16.131  15.230   3.498 -0.0870  0.0792  0.0529
    1W        W63811  14.271  18.647   6.742  0.0669 -0.1724 -0.1939
    1W        W63812  17.432  28.229   7.418  0.1130 -0.2376 -0.0017
    1W        W63813  10.479  21.918   2.560  0.2698 -0.2243  0.0808
    1W        W63814  27.338  10.098   8.845  0.0065 -0.2556 -0.0117
    1W        W63815  27.794   0.807   0.365 -0.0726 -0.5120  0.2567
    1W        W63816   4.818  18.854   0.229  0.1443  0.0665 -0.0671
    1W        W63817  19.961  15.286   8.013 -0.2226  0.0039  0.3507
    1W        W63818  24.870   3.677   0.800  0.1522  0.2672 -0.1547
    1W        W63819  28.457   4.150   8.301  0.0790 -0.0926  0.1849
    1W        W63820  16.026   1.439   6.834 -0.0452  0.1864  0.0142
    1W        W63821  20.815  26.940   0.139 -0.0294  0.1215  0.1390
    1W        W63822   2.581  20.328   1.490 -0.1469 -0.0582 -0.3709
    1W        W63823  24.237  13.678   8.301  0.1681  0.1890 -0.0725
    1W        W63824   4.007  27.254   7.584 -0.1473  0.0014 -0.1392
    1W        W63825  20.917  24.993   5.620  0.2512  0.2214 -0.0551
    1W        W63826  16.235  16.959   2.136  0.4503 -0.0324  0.1910
    1W        W63827  15.201  23.627   7.957 -0.0093  0.1222 -0.0763
    1W        W63828  10.051   5.445   6.779 -0.3541 -0.3757  0.0339
    1W        W63829  21.104   8.847   2.568 -0.0175 -0.1517  0.1583
    1W        W63830  11.139   0.280   2.431 -0.1743 -0.2567  0.0453
    1W        W63831  24.295  16.537   7.464  0.0013 -0.1039  0.3128
    1W        W63832  10.206   9.942   3.551  0.3650  0.0493  0.4501
    1W        W63833   7.611  28.283   7.261 -0.1231 -0.1595  0.1551
    1W        W63834  23.082  22.075   0.964  0.1391  0.1564  0.1618
    1W        W63835  10.594   0.240   2.540  0.0668  0.0043 -0.1162
    1W        W63836   3.111  16.603   9.236 -0.0782  0.1711 -0.1800
    1W        W63837  18.567  28.477   2.456  0.3280  0.0401  0.2509
    1W        W63838  17.433  26.859   8.984  0.2346  0.4850  0.1430
    1W        W63839  21.948  11.806   8.190 -0.0880  0.1131 -0.1974
    1W        W63840  28.774  26.876   2.157  0.0380 -0.1109  0.1434
    1W        W63841  29.563   6.024   0.101 -0.2241  0.2189  0.2066
    1W        W63842  17.876   7.006   6.151 -0.4324 -0.0269  0.1638
    1W        W63843  28.865  19.401   6.851  0.1027  0.2284 -0.1815
    1W        W63844   8.364   1.119   8.310  0.0644  0.0456  0.0835
    1W        W63845   5.423   4.125   8.976  0.0118 -0.1450  0.2299
    1W        W63846  24.148   2.032   2.264  0.3539  0.0801  0.2932
    1W        W63847   2.889  28.598   1.682 -0.1792 -0.0327  0.1012
    1W        W63848   1.488   4.707   2.255 -0.0388  0.2187 -0.1383
    1W        W63849  25.015  29.416   3.860 -0.0803  0.2525  0.1115
    1W        W63850   4.599  16.494   6.174  0.1630 -0.1232 -0.0381
    1W        W63851   8.936   2.080   6.917  0.3042  0.0194 -0.2347
    1W        W63852  15.344  27.683   8.800 -0.0008  0.0597 -0.0335
    1W        W63853   7.408  14.546   0.279 -0.0143  0.3552  0.0950
    1W        W63854  10.145   8.409   7.053 -0.2192 -0.0770  0.1417
    1W        W63855  12.735  25.549   6.639  0.0030  0.5931 -0.2209
    1W        W63856  21.888   8.444   1.700 -0.2491 -0.1299  0.0953
    1W        W63857   9.726   4.973   6.388 -0.0687 -0.1516 -0.1876
    1W        W63858   5.300   9.580   8.042  0.2030 -0.0974  0.0004
    1W        W63859  11.497   9.905   7.801  0.0720 -0.2998 -0.0963
    1W        W63860  20.238  16.620   1.375  0.1568  0.1993 -0.0436
    1W        W63861  13.156  17.780   1.699  0.0033  0.1286  0.1038
    1W        W63862  25.835  17.025   0.417  0.2034  0.1945  0.1936
    1W        W63863  27.815   3.272   0.281  0.1079 -0.2165 -0.1545
    1W        W63864  11.588  13.766   8.349 -0.0701  0.1178  0.0244
    1W        W63865  13.849  10.592   2.299 -0.1173 -0.0671  0.0414
    1W        W63866  29.898  28.960   0.250  0.2286 -0.0749  0.0080
    1W        W63867   1.534   6.069   0.745  0.0561  0.0408 -0.1528
    1W        W63868  30.230  12.707   9.081 -0.0047 -0.0199 -0.0700
    1W        W63869   2.245  27.632   1.645  0.1596 -0.0235 -0.1954
    1W        W63870  30.286   5.289   2.093 -0.1783  0.1575  0.0769
    1W        W63871  24.979   9.392   6.635  0.3544  0.1079 -0.0621
    1W        W63872  15.570  29.040   1.901  0.2852 -0.0686  0.1091
    1W        W63873  28.107  23.680   7.083 -0.1856 -0.1692  0.2761
    1W        W63874  18.957  19.180   0.191  0.3588  0.0822  0.1015
    1W        W63875   2.790  15.493   0.723  0.1783 -0.1536  0.0780
    1W        W63876  19.997   0.340   2.546  0.1917 -0.1260  0.0531
    1W        W63877  15.211  23.710   8.455 -0.5147 -0.1407  0.0095
    1W        W63878  12.645  18.286   7.017 -0.1960 -0.0516 -0.2090
    1W        W63879  15.168   7.796   8.018  0.2233  0.0849  0.0287
    1W        W63880   1.483  27.106   1.827  0.1975 -0.0892 -0.2781
    1W        W63881   4.105  17.993   7.543  0.0211  0.0347  0.1790
    1W        W63882  24.172  27.188   6.664 -0.1488  0.1430  0.0497
    1W        W63883  23.283   0.300   3.275  0.0580 -0.2272  0.4311
    1W        W63884  23.752  20.743   1.575  0.0936 -0.0503 -0.1887
    1W        W63885   0.052  28.541   1.432 -0.0410 -0.3433  0.0830
    1W        W63886  19.409   2.232   1.952  0.0034  0.2781  0.0519
    1W        W63887   2.628  13.409   1.276  0.2118 -0.0314  0.0137
    1W        W63888  17.785  27.236   0.532  0.1435  0.2792 -0.1046
    1W        W63889   2.175  17.482   0.289 -0.0142 -0.2214  0.0665
    1W        W63890   6.755  22.984   1.272  0.1349  0.1845  0.0120
    1W        W63891  19.867   5.634   1.442  0.5035 -0.1338  0.3535
    1W        W63892   0.902  22.015   7.061  0.0768  0.0753 -0.0079
    1W        W63893  15.113  19.940   0.310  0.1127  0.2638 -0.0394
    1W        W63894  19.110   9.309   7.452 -0.0068 -0.0259 -0.0323
    1W        W63895  15.008  27.958   3.236  0.1568  0.0918 -0.1788
    1W        W63896  21.765   9.307   7.301 -0.1625  0.0347  0.1211
    1W        W63897  12.158  27.460   6.663  0.1412  0.2015  0.0391
    1W        W63898  20.980  27.795   1.714 -0.0126 -0.3387 -0.0183
    1W        W63899   1.837   4.760   1.870  0.1132  0.1645 -0.1072
    1W        W63900  14.201   9.098   2.619 -0.1529 -0.1678 -0.0092
    1W        W63901  11.244  22.057   9.247  0.2508  0.0273 -0.1937
    1W        W63902   9.121   9.738   7.729  0.0844 -0.1694 -0.2416
    1W        W63903   5.521  23.017   8.152  0.0117 -0.0920  0.1098
    1W        W63904   8.271   2.466   0.265 -0.0657  0.2004 -0.1831
    1W        W63905  20.304  27.393   1.585  0.0167 -0.0201 -0.0449
    1W        W63906   9.348  13.222   1.399 -0.0990 -0.3005  0.2437
    1W        W63907   4.012  28.718   0.681 -0.1105 -0.0205 -0.1361
    1W        W63908   7.236   4.219   3.621  0.0150  0.2410 -0.2175
    1W        W63909   8.832  28.922   3.327  0.0605 -0.0967  0.0757
    1W        W63910   1.932  21.124   7.370  0.2036 -0.1983 -0.2257
    1W        W63911   0.340  27.393   2.167 -0.0639 -0.0906  0.0953
    1W        W63912  27.784   8.658   2.325  0.0268  0.1045  0.2703
    1W        W63913  21.276   7.161   1.864 -0.2350  0.3869  0.0455
    1W        W63914  25.202  19.878   8.713 -0.1128  0.1465  0.0148
    1W        W63915  26.942  29.981   0.976 -0.0166 -0.2528  0.0837
    1W        W63916  18.311   3.362   2.624 -0.1166  0.0370  0.2428
    1W        W63917   6.601  18.170   6.439  0.5648 -0.0744 -0.0135
    1W        W63918  10.966  28.219   8.934  0.1280 -0.1820  0.1041
    1W        W63919  29.830  17.406   7.342 -0.0789 -0.2352  0.0021
    1W        W63920  22.267  23.879   1.964 -0.0835  0.0714 -0.2008
    1W        W63921   1.383   0.929   6.867  0.0022  0.0311  0.2751
    1W        W63922  30.018  22.608   7.407  0.0562 -0.1081  0.1274
    1W        W63923   9.622  16.812   7.208 -0.0039 -0.0129 -0.0204
    1W        W63924  11.794   2.147   0.715  0.3829  0.3284 -0.1479
    1W        W63925   2.520  17.682   1.133  0.0436 -0.1838  0.2221
    1W        W63926   4.801   5.372   0.579  0.0289  0.1758 -0.0220
    1W        W63927   6.998  28.590   1.731  0.1072 -0.1932 -0.0803
    1W        W63928   9.531  23.165   0.610  0.2468 -0.0448 -0.0662
    1W        W63929  11.058   3.068   7.004 -0.1043 -0.1092 -0.1153
    1W        W63930  14.614  20.752   6.397 -0.1029  0.1112 -0.1862
    1W        W63931  18.229  21.890   7.153 -0.3177  0.0474 -0.0329
    1W        W63932   3.634  26.000   1.864  0.0980  0.0935 -0.1880
    1W        W63933  29.603  18.395   8.676 -0.3282  0.1205 -0.1907
    1W        W63934  21.620  16.120   1.125 -0.2308 -0.0658 -0.0753
    1W        W63935  20.476   0.608   7.045  0.3589 -0.0806  0.0667
    1W        W63936   1.952   0.519   3.278  0.0864 -0.1108  0.2393
    1W        W63937  17.967  14.029   0.123  0.2551  0.0586 -0.0347
    1W        W63938  25.835  16.262   7.816 -0.2424  0.2607  0.2101
    1W        W63939  14.753   3.715   1.706 -0.1811 -0.0238 -0.0785
    1W        W63940  19.999   9.973   8.438  0.2483 -0.2806 -0.2253
    1W        W63941  20.264  25.404   7.602 -0.1900 -0.0021  0.4533
    1W        W63942  24.962   8.863   1.562 -0.0587  0.1051 -0.2483
    1W        W63943   2.159  15.609   8.031 -0.1111 -0.0916 -0.5007
    1W        W63944   8.383  27.101   6.397 -0.1395  0.2501 -0.0112
    1W        W63945   9.610  20.119   8.206 -0.1153  0.1515 -0.3201
    1W        W63946  17.690  12.634   8.055  0.1642 -0.1084  0.1169
    1W        W63947   7.444   6.833   2.455 -0.0771  0.0275 -0.0759
    1W        W63948  28.155  30.217   0.571  0.3627  0.2440  0.0897
    1W        W63949   9.213  27.766   1.165  0.1884  0.0504  0.0464
    1W        W63950  23.300  15.523   0.986 -0.0365 -0.0928 -0.0341
    1W        W63951  24.465  21.738   7.358 -0.4360  0.2480  0.1662
    1W        W63952   9.265   2.685   7.034 -0.0048  0.3439 -0.1542
    1W        W63953  17.372  11.950   8.344 -0.1175  0.1519  0.1437
    1W        W63954  16.225  15.213   1.376 -0.2310  0.4163 -0.0530
    1W        W63955   0.411  14.529   1.119 -0.0366  0.2890 -0.0870
    1W        W63956  28.792   7.076   2.252  0.0944  0.0433  0.2091
    1W        W63957   9.041  10.988   0.326  0.0171  0.1941 -0.2447
    1W        W63958  29.739  15.245   7.205 -0.0484  0.0479 -0.2606
    1W        W63959  19.244   8.019   8.885  0.1367 -0.2285 -0.2784
    1W        W63960  20.394  15.881   8.641  0.0270 -0.0364 -0.1011
    1W        W63961  23.175  26.176   7.476  0.0191 -0.1464 -0.0450
    1W        W63962   7.681  12.578   7.419  0.2052 -0.0210  0.0337
    1W        W63963  27.658  23.633   9.272  0.0275  0.0695 -0.2426
    1W        W63964  27.554  16.056   6.821 -0.0179 -0.0247 -0.2857
    1W        W63965   5.827  28.963   0.995  0.2431 -0.1171  0.1764
    1W        W63966  23.884   1.681   8.117 -0.3743  0.0410  0.2281
    1W        W63967   7.298  19.280   8.366 -0.1702  0.1076  0.3422
    1W        W63968  15.984   9.631   1.240  0.0368 -0.0133  0.2205
    1W        W63969   4.061  29.904   3.088 -0.2186 -0.0774  0.0347
    1W        W63970  13.192  14.613   7.876  0.3302 -0.0205  0.2310
    1W        W63971  10.513  11.351   8.061 -0.1526 -0.1491  0.0627
    1W        W63972  28.485   7.138   3.054 -0.0287 -0.2600  0.0816
    1W        W63973  26.186  15.060   8.755 -0.1497 -0.0297  0.1749
    1W        W63974  27.072  13.307   7.558 -0.0938 -0.3329  0.1963
    1W        W63975   8.831   0.311   0.591  0.0705  0.0845  0.1678
    1W        W63976  24.852   9.936   8.433 -0.0493  0.1519  0.3105
    1W        W63977  11.259   1.447   7.147 -0.0782 -0.0644  0.1277
    1W        W63978  19.496  21.616   0.665 -0.1334  0.2622 -0.2781
    1W        W63979  25.895  18.030   7.991  0.1359  0.2246  0.0769
    1W        W63980  21.567  12.584   8.284 -0.0502 -0.1951 -0.0560
    1W        W63981  24.875   0.229   0.275 -0.0384  0.5940  0.2069
    1W        W63982  29.883   0.949   0.331  0.2193 -0.1984  0.1418
    1W        W63983   8.903  26.101   7.604 -0.2289  0.1395  0.2870
    1W        W63984  14.463   9.168   9.004  0.0434 -0.3441  0.0823
    1W        W63985  10.404  23.180   0.173  0.1384  0.1352 -0.2244
    1W        W63986  20.517  21.007   1.540  0.2588  0.0502  0.1671
    1W        W63987  26.069  10.246   6.991  0.1079 -0.0662 -0.0523
    1W        W63988   8.905   7.753   0.077 -0.1582  0.3122 -0.1452
    1W        W63989   0.896  21.803   6.538 -0.1471  0.1746  0.1846
    1W        W63990   1.406  10.973   1.967  0.2783 -0.0508 -0.1436
    1W        W63991  15.934  24.338   1.418  0.0497  0.3192 -0.3609
    1W        W63992  16.477  24.895   7.168 -0.2794  0.2840 -0.1376
    1W        W63993  14.450  13.697   8.541  0.5084  0.1835  0.4959
    1W        W63994   0.131   9.390   0.522  0.1537 -0.2004 -0.3350
    1W        W63995   1.871   4.579   6.881  0.1245 -0.0227  0.1244
    1W        W63996  23.325  14.413   0.984 -0.1194  0.0291  0.1440
    1W        W63997   7.194  15.366   0.334 -0.1135 -0.1392  0.1282
    1W        W63998  23.748   2.623   2.603 -0.1878 -0.1196 -0.1767
    1W        W63999   5.046  24.890   1.556 -0.0954 -0.0496 -0.0935
    1W        W64000  26.701  23.650   1.168  0.0054 -0.0131  0.0937
    1W        W64001  11.550  27.613   8.061  0.2964  0.0556 -0.0768
    1W        W64002   7.646  13.756   7.854  0.1378 -0.1952 -0.1164
    1W        W64003  20.597  13.426   6.517 -0.0593 -0.4659 -0.0511
    1W        W64004  19.604  25.155   6.613 -0.2008  0.0375  0.1732
    1W        W64005  15.025  25.384   0.517  0.0650 -0.1038 -0.0964
    1W        W64006  25.334   4.602   2.856  0.0184  0.2751  0.3089
    1W        W64007   7.681  30.099   1.127 -0.1499 -0.0410 -0.3844
    1W        W64008  18.773  14.048   9.215 -0.1069 -0.0425  0.1627
    1W        W64009  23.206  19.094   5.540  0.6816 -0.1846 -0.0384
    1W        W64010  18.636  15.658   2.471  0.2841  0.2034 -0.0429
    1W        W64011  26.458  25.650   8.106 -0.0265  0.0009  0.0717
    1W        W64012  21.883  11.105   6.849  0.1744  0.2675  0.4261
    1W        W64013   0.930   7.353   8.619  0.2505 -0.3491  0.0753
    1W        W64014  20.327  11.060   0.361  0.1481  0.1937  0.3184
    1W        W64015  19.018  10.316   9.154 -0.2188 -0.1938  0.0917
    1W        W64016   6.493  29.483   8.191 -0.3767  0.0415 -0.0032
    1W        W64017  25.403   0.200   2.624  0.3317  0.3880  0.2552
    1W        W64018  14.708  19.627   0.274  0.0225  0.1389 -0.0607
    1W        W64019  28.805  16.632   8.020 -0.0917  0.0129  0.2958
    1W        W64020  16.890  13.577   3.288 -0.1626 -0.1322  0.0371
    1W        W64021  20.985   9.602   7.223 -0.0327  0.2030  0.3878
    1W        W64022   9.244  19.855   0.768 -0.1867 -0.0594  0.5417
    1W        W64023  17.605  28.099   7.924  0.1638  0.0825 -0.2000
    1W        W64024  26.815  13.807   6.714  0.3319 -0.3207 -0.0109
    1W        W64025  19.078  17.948   8.794  0.1168 -0.1256  0.0162
    1W        W64026  18.851   3.195   0.759 -0.0659  0.0305 -0.1340
    1W        W64027  22.314  16.733   8.877 -0.0756  0.1176  0.0402
    1W        W64028   2.131  22.180   1.740  0.3307  0.1638 -0.0824
    1W        W64029  19.905  22.351   0.497 -0.2290 -0.0831  0.0168
    1W        W64030   9.615   3.767   8.219  0.0102 -0.0814 -0.2123
    1W        W64031  24.200   7.761   8.791  0.0901 -0.0516 -0.0584
    1W        W64032  19.706   8.774   6.270 -0.1716  0.1122 -0.1473
    1W        W64033  14.792  21.875   6.828  0.1523 -0.1736 -0.0846
    1W        W64034   7.300   3.607   2.394 -0.1214  0.1600  0.1145
    1W        W64035   7.999   4.963   2.107 -0.0362 -0.1969  0.0601
    1W        W64036  12.138  28.082   2.176  0.0350 -0.1354  0.0963
    1W        W64037   2.261  12.532   6.926 -0.1878 -0.0074  0.2289
    1W        W64038  10.654  11.821   1.345 -0.1992  0.0374 -0.0997
    1W        W64039   8.191   0.969   0.089  0.0408  0.3117 -0.2425
    1W        W64040  25.366   9.186   8.035  0.1186 -0.1130  0.0224
    1W        W64041  12.397  25.003   0.729 -0.2333 -0.1333  0.1667
    1W        W64042  23.665  17.927   6.011  0.1471 -0.0281  0.1677
    1W        W64043  11.986  23.697   0.948 -0.0034 -0.3377  0.0531
    1W        W64044  21.785   4.707   2.363  0.2551 -0.3041  0.3309
    1W        W64045   8.403  22.463   2.711 -0.1166  0.2057  0.0945
    1W        W64046  26.655   7.447   7.114  0.0394 -0.0175  0.0488
    1W        W64047   2.036  21.405   7.802  0.0787  0.2215  0.0980
    1W        W64048  27.878  22.277   0.515 -0.0726 -0.0783  0.0869
    1W        W64049  17.176   7.059   1.122  0.2309 -0.2137 -0.2094
    1W        W64050   0.994  26.046   7.746 -0.2581  0.0178  0.2654
    1W        W64051  20.643   9.113   6.264  0.0367 -0.1078 -0.2138
    1W        W64052  26.399   5.797   2.975 -0.0052 -0.3039 -0.0470
    1W        W64053   3.924   8.438   1.404  0.0633 -0.3586 -0.0769
    1W        W64054   5.840   9.781   1.518  0.2523 -0.1129  0.1269
    1W        W64055   5.518  16.046   7.608  0.1153 -0.0162 -0.1240
    1W        W64056  24.032  10.586   0.797 -0.1369  0.0743  0.2153
    1W        W64057  27.157  25.959   1.110 -0.3304  0.1244 -0.0970
    1W        W64058  10.317   5.633   7.819  0.0347 -0.3087 -0.1850
    1W        W64059  16.157  15.135   7.978 -0.0506 -0.1453  0.2065
    1W        W64060   4.682   7.485   0.127 -0.0896 -0.2258 -0.1906
    1W        W64061   2.816  12.615   8.599 -0.0280 -0.3060  0.0898
    1W        W64062   9.618  25.896   0.056  0.1230  0.0692  0.1892
    1W        W64063  15.553  26.999   7.091 -0.0340 -0.1138  0.1419
    1W        W64064  30.034   8.703   7.779  0.1587 -0.0724  0.0714
    1W        W64065   5.025   4.129   7.356 -0.0870 -0.1309 -0.4209
    1W        W64066  29.883  18.652   0.575 -0.1943  0.0864  0.0997
    1W        W64067  28.663   5.568   7.860 -0.0525  0.2095  0.1400
    1W        W64068  12.640   9.821   3.235  0.2201 -0.0187 -0.3701
    1W        W64069  15.325  29.641   1.692  0.0811  0.1660  0.0196
    1W        W64070  21.608   7.142   7.420 -0.1767  0.4666 -0.4584
    1W        W64071   9.314  18.046   1.448  0.0518 -0.4424 -0.2487
    1W        W64072   6.224   3.481   1.108  0.0656 -0.2141  0.1830
    1W        W64073   0.579   2.827   8.603  0.1193  0.3667 -0.0232
    1W        W64074   9.115   9.485   8.650 -0.0023  0.2036  0.2131
    1W        W64075   9.029  20.660   0.030  0.1604 -0.1318 -0.3407
    1W        W64076  22.885  22.914   1.973 -0.1549  0.2651  0.1804
    1W        W64077   1.149   3.543   0.868 -0.3215 -0.3793  0.3348
    1W        W64078  16.663  28.365   3.122 -0.1416  0.0530 -0.2558
    1W        W64079  15.725  26.937   1.717 -0.1004  0.0841  0.2438
    1W        W64080  26.562  20.255   0.928 -0.1033  0.0631  0.1618
    1W        W64081  21.690  13.696   6.993  0.0534 -0.0776 -0.2317
    1W        W64082   7.254  17.250   6.882  0.3087  0.0371 -0.0029
    1W        W64083  26.388   4.566   8.784  0.0792  0.0320  0.0305
    1W        W64084  20.697  15.330   7.554 -0.1924  0.0625  0.4018
    1W        W64085  12.741  14.977   0.283 -0.3029  0.2594 -0.0610
    1W        W64086  17.819   5.455   7.240  0.1762 -0.1295 -0.3835
    1W        W64087  11.136   6.313   2.171  0.0654 -0.1257 -0.1034
    1W        W64088   8.928  28.825   7.594 -0.0919  0.2471  0.0741
    1W        W64089   2.629  29.683   2.397 -0.3683  0.0406 -0.1540
    1W        W64090  25.780   0.274   8.600 -0.2018 -0.1259  0.3445
    1W        W64091  24.229  17.759   1.371  0.0023 -0.3256  0.0131
    1W        W64092  11.657  22.250   0.155  0.1282  0.0026 -0.2466
    1W        W64093   2.372  21.501   6.554  0.1178 -0.1778 -0.1386
    1W        W64094   7.997  29.732   1.979 -0.2139 -0.0945  0.1611
    1W        W64095  15.733   4.090   7.401 -0.0008 -0.0242  0.0982
    1W        W64096   5.936   7.459   0.842 -0.1358  0.0785 -0.0411
    1W        W64097  28.140  17.359   8.728  0.0907  0.0365 -0.2462
    1W        W64098  10.003   4.027   7.936 -0.1694  0.0794 -0.1147
    1W        W64099  22.826  17.454   7.124  0.2671  0.4943  0.5453
    1W        W64100  14.922   0.630   7.952  0.2221  0.0868  0.0195
    1W        W64101  16.331  22.391   7.269 -0.4528 -0.0900  0.0726
    1W        W64102  20.255  29.954   2.316 -0.2972  0.0962 -0.2004
    1W        W64103  26.085  16.300   6.947 -0.0845  0.0435  0.0168
    1W        W64104  26.874  30.088   2.883 -0.2017  0.1521  0.0429
    1W        W64105  18.527  14.677   1.784  0.3372  0.0642  0.0329
    1W        W64106   4.365  26.471   0.046  0.0757  0.0591 -0.1608
    1W        W64107   6.629  22.991   7.018  0.0876  0.1688  0.0206
    1W        W64108  15.681  12.457   1.723  0.1050  0.1097 -0.1471
    1W        W64109  29.458  11.959   1.938 -0.2767  0.0448 -0.1557
    1W        W64110   6.462   7.742   8.840 -0.2753 -0.0631 -0.0241
    1W        W64111   2.205  23.555   1.450  0.0451 -0.0219 -0.2270
    1W        W64112  25.712  26.023   8.124  0.1472  0.1487  0.1261
    1W        W64113  21.195  16.729   9.181  0.4300  0.0904  0.0459
    1W        W64114  19.895  14.724   7.497  0.4397  0.1714 -0.2043
    1W        W64115   8.059   3.764   3.378  0.2899 -0.0096 -0.0665
    1W        W64116  27.750   8.621   8.916 -0.0631  0.0670  0.4157
    1W        W64117  27.217   2.469   7.637  0.1137  0.0387 -0.0106
    1W        W64118  21.711   0.120   7.618 -0.1064  0.0997  0.5844
    1W        W64119  28.272   8.177   1.174  0.2980 -0.0766 -0.1112
    1W        W64120  16.715  12.074   8.440 -0.1935 -0.3628 -0.0411
    1W        W64121   6.356  25.576   8.768 -0.0908 -0.0209 -0.1173
    1W        W64122   7.009  26.852   1.781 -0.1851  0.0123 -0.0925
    1W        W64123  25.227   4.219   0.457 -0.3242 -0.0131  0.0846
    1W        W64124   4.595  10.012   2.159 -0.0389 -0.4452 -0.1448
    1W        W64125   4.024  21.140   0.452 -0.3100  0.0891  0.1374
    1W        W64126  12.450  14.647   3.039 -0.2846 -0.0773  0.0525
    1W        W64127  18.277   2.370   1.092  0.1692  0.2742  0.0361
    1W        W64128   7.143   0.254   3.480 -0.2295  0.0296  0.2391
    1W        W64129  12.111  16.918   2.100 -0.0808  0.0125  0.1419
    1W        W64130  18.440  16.966   0.342 -0.0038  0.3315 -0.0124
    1W        W64131  11.402   6.157   9.072  0.1216 -0.0767  0.1238
    1W        W64132  20.991  16.315   7.421  0.4064  0.2863  0.0139
    1W        W64133   1.954  18.857   7.082  0.1148  0.0140 -0.1514
    1W        W64134   3.574  14.909   0.346  0.1945 -0.1715 -0.2317
    1W        W64135  22.669   6.786   2.817  0.2202  0.1358  0.0186
    1W        W64136   8.420  26.055   2.035 -0.2901  0.2031  0.4822
    1W        W64137   7.377  12.774   8.269 -0.1291  0.3105 -0.2156
    1W        W64138  16.927   7.951   9.059  0.1783 -0.0685  0.1995
    1W        W64139  10.644   4.347   2.388  0.1374  0.0434 -0.0321
    1W        W64140  23.175   8.626   8.584 -0.0927 -0.2963  0.0195
    1W        W64141  20.399  26.188   3.088 -0.1036  0.2361  0.2804
    1W        W64142  26.510   0.511   0.683 -0.0708  0.4800  0.0749
    1W        W64143  14.906  13.585   2.616 -0.2686  0.3135  0.0448
    1W        W64144  17.993  27.861   2.113  0.0888  0.1831 -0.2523
    1W        W64145  16.426  15.709   6.805  0.4443 -0.2607  0.2607
    1W        W64146  19.647  19.784   7.418  0.4911  0.2473  0.1403
    1W        W64147  10.089  11.126   2.595 -0.0888 -0.2581  0.1658
    1W        W64148   4.281   9.751   2.408  0.1248  0.0937  0.3187
    1W        W64149  23.561   3.281   8.599 -0.0661 -0.0029  0.0720
    1W        W64150  19.712  11.709   1.704 -0.1439  0.3044  0.1394
    1W        W64151  24.145   5.689   0.861 -0.1721 -0.1546 -0.1473
    1W        W64152  27.008   8.395   7.751  0.1001 -0.0886 -0.1518
    1W        W64153   8.348  11.714   2.937 -0.1725  0.2204 -0.2766
    1W        W64154  14.493  19.204   0.038  0.4051 -0.2746  0.0804
    1W        W64155  22.916  10.108   6.154  0.2773  0.1627 -0.1495
    1W        W64156  14.914   7.827   9.183 -0.0248  0.1716  0.0352
    1W        W64157  17.261  25.468   0.855  0.2014 -0.3233 -0.3584
    1W        W64158   4.920  16.450   5.820  0.1349 -0.1385  0.1300
    1W        W64159  14.740   7.920   2.452 -0.2446 -0.0701 -0.2042
    1W        W64160  12.186  15.086   2.206 -0.0938 -0.1059 -0.3900
    1W        W64161   1.946   5.763   0.647 -0.2221  0.3037 -0.0422
    1W        W64162  13.330  16.805   0.905 -0.3452 -0.0590  0.1405
    1W        W64163   9.215  24.023   8.356  0.1758  0.0436  0.0866
    1W        W64164   8.006   6.738   7.526 -0.1414 -0.0613 -0.0392
    1W        W64165  12.876   3.663   1.002 -0.1319  0.1373 -0.4254
    1W        W64166  27.502  23.920   2.539 -0.2601 -0.0454  0.1612
    1W        W64167  30.344  27.260   0.642  0.1070 -0.1292  0.2391
    1W        W64168  12.243  14.801   1.202  0.2049  0.0164  0.3320
    1W        W64169  22.576  14.621   6.312 -0.1323  0.1014 -0.3084
    1W        W64170  11.055   7.038   1.998  0.0071  0.0392  0.1311
    1W        W64171   5.400  21.030   8.073  0.1759 -0.0454 -0.0554
    1W        W64172  24.192  12.647   6.420  0.1511  0.0662 -0.1212
    1W        W64173  16.446  28.939   1.979 -0.1670  0.0556  0.2719
    1W        W64174  19.064  23.197   6.142 -0.3619 -0.1283  0.2670
    1W        W64175  17.798   4.179   0.758  0.0477 -0.4058  0.2372
    1W        W64176  21.414  15.754   8.052  0.1973 -0.2322 -0.1922
    1W        W64177  14.397  25.278   2.638  0.2076 -0.1070 -0.0458
    1W        W64178  10.605  14.640   7.549  0.0556  0.0035 -0.0401
    1W        W64179   0.639   4.992   1.114 -0.2819 -0.0016  0.0123
    1W        W64180  20.711  27.739   0.753  0.0245  0.0313  0.0153
    1W        W64181  23.220   5.941   1.140 -0.0328  0.2791 -0.1566
    1W        W64182  19.911   3.479   8.311  0.0701  0.2071  0.0372
    1W        W64183  17.331  10.233   0.392  0.0857  0.0531  0.0288
    1W        W64184  21.033   2.174   1.132  0.0348  0.2663  0.3602
    1W        W64185   1.810   3.883   7.108 -0.1175  0.1434  0.1519
    1W        W64186   4.290  19.626   0.973  0.0722 -0.1586  0.0787
    1W        W64187  27.456   6.693   1.606 -0.2364  0.5019 -0.1202
    1W        W64188  23.648  15.514   0.200 -0.4347  0.0368 -0.1148
    1W        W64189  18.851  30.279   9.037  0.0200  0.0410 -0.0060
    1W        W64190   7.661  27.027   2.046 -0.0554  0.0909 -0.2987
    1W        W64191  17.899  29.030   0.053  0.1151 -0.2786  0.1507
    1W        W64192  28.019  16.977   7.052  0.2795 -0.1240 -0.1604
    1W        W64193  13.088  29.305   7.231  0.2214  0.0920  0.0410
    1W        W64194   3.206   8.583   2.941  0.2380  0.0812  0.0781
    1W        W64195   0.100  20.415   8.847 -0.1538  0.2658  0.5134
    1W        W64196   4.355  15.413   0.540  0.0607  0.2624  0.1864
    1W        W64197   4.359  28.221   7.770 -0.2111  0.1966  0.3551
    1W        W64198   7.774  13.354   0.418 -0.1144 -0.2708 -0.0527
    1W        W64199   3.732  20.511   7.538 -0.0807  0.0728  0.0139
    1W        W64200   8.628  29.762   7.748  0.0948 -0.1074 -0.2260
    1W        W64201  11.207  10.390   2.262  0.2432 -0.0766 -0.1288
    1W        W64202  13.913   2.822   1.628  0.0993  0.1479  0.0506
    1W        W64203   8.475   1.633   0.566 -0.1717  0.2226 -0.1071
    1W        W64204   6.715   8.099   2.101  0.2445  0.2738  0.3011
    1W        W64205  10.264   1.817   1.161  0.2211 -0.1248  0.0516
    1W        W64206   2.956   5.146   8.590 -0.1314  0.0834 -0.1270
    1W        W64207  17.401  13.122   8.511 -0.1678  0.0597 -0.1706
    1W        W64208  19.859  16.886   2.251  0.1532 -0.3164 -0.0882
    1W        W64209  16.518   4.539   1.345  0.0591  0.2144 -0.1940
    1W        W64210  17.320  17.310   8.683 -0.1447  0.1696  0.1834
    1W        W64211  17.187   8.122   1.595 -0.1582  0.0122  0.1895
    1W        W64212  16.638  26.187   1.243 -0.0223 -0.0202  0.0996
    1W        W64213  27.925   7.291   6.886  0.1176  0.0917 -0.0777
    1W        W64214  27.030   7.755   0.936 -0.3183 -0.0967  0.1889
    1W        W64215   1.581   1.616   1.239  0.1387 -0.1333 -0.3249
    1W        W64216  28.861  17.175   7.062  0.2258 -0.2267  0.0001
    1W        W64217  25.548  22.349   0.692 -0.1841  0.1652 -0.1255
    1W        W64218   3.668  23.390   1.585  0.1694 -0.3986 -0.1783
    1W        W64219  19.840   6.372   1.896  0.0299  0.0410  0.0089
    1W        W64220   4.006  25.668   1.726 -0.1091  0.0079 -0.2347
    1W        W64221  14.335   5.611   0.658  0.0451 -0.6402  0.0890
    1W        W64222  30.151  11.076   6.952 -0.0396 -0.0191  0.0550
    1W        W64223   0.322  19.847   8.967  0.0183  0.1944 -0.0380
    1W        W64224   0.442  23.372   8.111 -0.0842 -0.0015  0.0383
    1W        W64225  22.409  18.793   7.341  0.1327  0.3421  0.1579
    1W        W64226   2.699   4.335   1.747  0.0538 -0.0785  0.0499
    1W        W64227   3.895  14.973   8.030 -0.2076 -0.0923 -0.0866
    1W        W64228   4.751  22.821   6.310 -0.2397 -0.0644  0.1838
    1W        W64229   4.974  18.915   8.107  0.0387  0.1133  0.0179
    1W        W64230  22.247  26.370   7.343  0.2689  0.0033 -0.1110
    1W        W64231  30.286  19.557   0.133  0.1422  0.1703 -0.0416
    1W        W64232  20.200  14.854   7.923 -0.0230  0.1629  0.2547
    1W        W64233  24.544   7.283   2.931 -0.4756 -0.2331  0.1472
    1W        W64234   3.075  15.603   0.314 -0.1082  0.0521 -0.0356
    1W        W64235  22.597  12.880   1.287 -0.1227  0.0841  0.4948
    1W        W64236  15.930  27.125   6.347 -0.1783 -0.0176  0.1332
    1W        W64237  16.171  17.116   1.682 -0.2579 -0.4563 -0.2454
    1W        W64238   3.620   9.520   9.185  0.0091  0.3020 -0.0002
    1W        W64239  28.933  29.994   0.155 -0.2650  0.0153  0.1167
    1W        W64240  17.180  22.391   7.708 -0.1779  0.0146  0.0624
    1W        W64241  29.885  14.235   6.462 -0.2228 -0.2673  0.1039
    1W        W64242   9.518  19.192   8.204 -0.2524 -0.1296 -0.0348
    1W        W64243  13.301  10.645   0.133 -0.5303  0.1645 -0.1958
    1W        W64244  28.621   5.802   7.267 -0.3973 -0.0161  0.3136
    1W        W64245  19.870  23.276   9.216 -0.4980 -0.2050 -0.0766
    1W        W64246  21.483  24.192   8.082 -0.1538  0.3084  0.1881
    1W        W64247  29.143  19.989   1.581 -0.1140  0.1191 -0.1483
    1W        W64248  24.633   1.904   0.814 -0.0357  0.0104  0.0455
    1W        W64249  28.900  29.604   1.826  0.0955  0.2257 -0.3826
    1W        W64250  12.067   4.456   0.183  0.0593 -0.1123 -0.2329
    1W        W64251  22.855  18.404   1.434 -0.0863  0.0323 -0.0181
    1W        W64252   3.366   5.203   1.537 -0.0725  0.0801 -0.1055
    1W        W64253  27.810  20.378   8.619 -0.0493  0.3455 -0.0460
    1W        W64254  27.644   6.153   2.769  0.1849  0.3687 -0.1242
    1W        W64255  27.880  13.960   2.203  0.4127  0.1523  0.2549
    1W        W64256  21.601  27.159   1.725  0.1926 -0.2339  0.1893
    1W        W64257  26.526   7.025   8.882  0.2904  0.2426  0.1527
    1W        W64258  19.329  10.637   8.507 -0.2678  0.0526  0.2673
    1W        W64259   2.181   3.248   2.723  0.3222 -0.1396  0.0870
    1W        W64260  18.727   9.530   7.232  0.1467  0.3363 -0.1173
    1W        W64261  21.679   0.618   3.957 -0.0804  0.0028  0.3938
    1W        W64262  29.004  14.857   8.647 -0.1332 -0.1196  0.1564
    1W        W64263  17.600  30.293   2.229 -0.0002 -0.1801  0.1862
    1W        W64264  13.538  15.795   2.609  0.2087 -0.0417 -0.1213
    1W        W64265  14.642  10.058   2.923  0.0579  0.0988  0.0922
    1W        W64266  10.808  10.233   1.885  0.0682 -0.0432 -0.0893
    1W        W64267  25.235   0.287   3.548 -0.1085 -0.0975 -0.0285
    1W        W64268   4.360  29.751   2.238 -0.0722  0.0697  0.1094
    1W        W64269  15.390  24.926   0.513 -0.0462 -0.1928 -0.0089
    1W        W64270  11.884  17.950   6.953 -0.1980 -0.1785 -0.0019
    1W        W64271  17.588  16.968   7.870 -0.0627 -0.0557 -0.1922
    1W        W64272   8.479  13.692   6.427  0.0357  0.0922 -0.0757
    1W        W64273   7.455  29.801   7.757  0.0155 -0.1533  0.3819
    1W        W64274   9.869  15.041   0.100  0.1864 -0.1411  0.0751
    1W        W64275  29.474  12.613   7.786 -0.1502 -0.2011  0.3243
    1W        W64276  28.143  13.234   1.201 -0.4598  0.3789 -0.2030
    1W        W64277   1.289  26.132   3.288  0.0427  0.0837 -0.0057
    1W        W64278   8.664  27.148   7.241 -0.3009  0.2207  0.1515
    1W        W64279   4.460  28.481   0.960 -0.0323  0.2299  0.1295
    1W        W64280   6.547   1.941   1.033 -0.2948 -0.1713  0.2964
    1W        W64281  11.742  12.475   2.149 -0.3505  0.0398  0.1737
    1W        W64282   6.122  16.529   8.065 -0.2744 -0.2517  0.3150
    1W        W64283  21.507  14.079   8.017 -0.0132  0.1343 -0.0630
    1W        W64284   5.379   3.607   7.759 -0.1813  0.0115 -0.0426
    1W        W64285  17.682   6.727   8.543  0.0979  0.1090 -0.1007
    1W        W64286  21.307   6.717   2.398 -0.1100  0.0467  0.1488
    1W        W64287  19.246  27.287   0.837 -0.0990  0.1774 -0.2253
    1W        W64288  19.326   0.878   8.593  0.2385 -0.0446  0.1296
    1W        W64289  15.951  29.930   0.345 -0.0278 -0.4258  0.2139
    1W        W64290  19.191   7.875   7.446  0.1634 -0.0340  0.4779
    1W        W64291  11.720   2.132   7.441  0.0629  0.3032 -0.1676
    1W        W64292  27.701  26.405   7.905  0.0667  0.1449 -0.4215
    1W        W64293  18.570   4.513   8.268  0.5165 -0.1638 -0.1346
    1W        W64294  10.383  24.914   6.469 -0.0478  0.2414  0.4684
    1W        W64295  22.715   7.866   7.746 -0.0812  0.0581 -0.2969
    1W        W64296  24.138  26.027   3.403 -0.1054 -0.1994 -0.0733
    1W        W64297  14.573  19.476   6.997  0.1253 -0.1005  0.1218
    1W        W64298   1.639  19.881   7.886  0.5057  0.3749 -0.1781
    1W        W64299  12.294   1.461   0.348 -0.2161  0.1493  0.2444
    1W        W64300   4.732   9.925   1.688 -0.0474  0.0973  0.0081
    1W        W64301  21.838  22.533   0.472  0.1933  0.0452  0.0333
    1W        W64302  13.214  15.835   8.506 -0.1263  0.0917 -0.0255
    1W        W64303  18.126  19.665   6.101  0.0326 -0.0393 -0.2397
    1W        W64304  11.381  25.713   0.628  0.2879  0.1337 -0.2495
    1W        W64305  23.289  18.729   0.496  0.0146  0.1925  0.2028
    1W        W64306   5.509   2.395   2.688 -0.1944  0.0783  0.1065
    1W        W64307  27.263  28.841   3.354  0.1069  0.1878  0.2246
    1W        W64308   5.061  28.868   0.153 -0.1122 -0.0919  0.4171
    1W        W64309  24.030   9.882   1.712  0.3656  0.3080  0.0400
    1W        W64310  25.658  28.728   3.148  0.1399 -0.0138  0.0169
    1W        W64311  10.491  28.992   0.726  0.2772 -0.1706 -0.0547
    1W        W64312  27.285  29.370   1.528  0.1250  0.0849  0.3587
    1W        W64313  24.490  21.605   6.856  0.0300  0.1821 -0.2701
    1W        W64314  29.948   4.194   7.666 -0.0229  0.3462 -0.1561
    1W        W64315  19.637  25.200   8.705  0.0990  0.1726 -0.2808
    1W        W64316   8.587   6.650   1.729  0.0670  0.1450 -0.0379
    1W        W64317  12.386  14.083   1.911  0.1157 -0.0808  0.1972
    1W        W64318  20.172  14.793   2.056 -0.0424  0.1884 -0.0246
    1W        W64319  17.706  26.156   2.288  0.2358 -0.0280  0.1903
    1W        W64320   8.493  21.881   2.762 -0.0384 -0.1021  0.1019
    1W        W64321   0.441  19.177   8.755  0.1603 -0.0623  0.1249
    1W        W64322  23.983  12.552   1.459  0.0596 -0.0987  0.0486
    1W        W64323  29.312  17.143   7.298  0.0334  0.0402 -0.0315
    1W        W64324  28.433   8.562   0.736 -0.1170  0.0208  0.0015
    1W        W64325  28.953   3.368   2.848  0.1509  0.1813 -0.3468
    1W        W64326  12.196  14.968   1.680 -0.0439 -0.0336  0.0435
    1W        W64327   1.591  17.088   0.337  0.1989  0.0722  0.0353
    1W        W64328   5.890  29.324   2.724  0.1225 -0.2388  0.0233
    1W        W64329  24.560  25.590   2.761 -0.2281 -0.0394 -0.0364
    1W        W64330   5.498  25.000   0.807 -0.3443  0.1270 -0.1913
    1W        W64331  17.922  21.612   8.608 -0.2081  0.0227  0.1872
    1W        W64332  19.607  22.732   8.085  0.0539 -0.0316 -0.0982
    1W        W64333  14.743  25.682   2.386  0.0420 -0.1732  0.1701
    1W        W64334  23.672  22.113   7.387 -0.0749 -0.0329 -0.2860
    1W        W64335   7.562  13.196   7.793 -0.2076 -0.2113 -0.0937
    1W        W64336   5.221  27.004   9.228  0.0965 -0.2271 -0.0134
    1W        W64337  25.371  12.859   8.768  0.2133 -0.1506 -0.1835
    1W        W64338  16.989  25.321   6.420  0.0601  0.1671 -0.3354
    1W        W64339   0.881   5.217   2.769 -0.3397 -0.1818 -0.1512
    1W        W64340  22.661  14.244   9.237 -0.0668  0.2667 -0.0853
    1W        W64341  20.481  26.346   7.512  0.1781 -0.1777  0.4395
    1W        W64342  27.616  29.515   4.109  0.0941 -0.0544  0.1704
    1W        W64343  15.029  19.210   7.052  0.2064 -0.2017  0.2198
    1W        W64344  28.005  22.079   1.411 -0.0803  0.1282  0.2501
    1W        W64345  28.987  17.923   7.018  0.2699  0.2878  0.1980
    1W        W64346  14.839   6.711   8.693  0.1796 -0.0395  0.1623
    1W        W64347  10.266  17.918   2.223 -0.0396 -0.2828 -0.1490
    1W        W64348  24.743  17.340   6.858  0.3065  0.1338 -0.3416
    1W        W64349  18.453  11.689   1.525  0.0888 -0.2956 -0.1024
    1W        W64350  30.185  18.396   6.340 -0.3819  0.0206 -0.2053
    1W        W64351   0.162  11.768   6.548 -0.1728  0.1297 -0.0723
    1W        W64352   3.158   5.754   6.842 -0.2103 -0.2948  0.0723
    1W        W64353  17.856  10.591   0.930  0.0696  0.1945  0.3093
    1W        W64354   1.887  20.950   1.894  0.2904  0.1929  0.0766
    1W        W64355   7.202  16.906   0.121  0.0506  0.2357  0.3425
    1W        W64356  23.341  29.149   3.489  0.1165 -0.1146  0.1186
    1W        W64357   6.948   2.867   1.153 -0.0543  0.3983 -0.2549
    1W        W64358  25.088  15.911   7.129  0.2688  0.2642 -0.1949
    1W        W64359  25.760  29.314   0.526 -0.1527 -0.2491 -0.0374
    1W        W64360   9.733  22.992   7.471  0.0179 -0.1660  0.0649
    1W        W64361  27.600  26.011   7.596 -0.0092  0.1352  0.1210
    1W        W64362   2.798  20.413   0.376 -0.1192 -0.0885  0.1256
    1W        W64363  20.680   4.482   2.303 -0.1839  0.1870 -0.1868
    1W        W64364  20.508   6.951   6.746 -0.0239  0.3125 -0.1883
    1W        W64365   7.632  27.936   0.033 -0.2365  0.0269 -0.0993
    1W        W64366   9.484   1.221   9.107 -0.1253  0.4619 -0.0973
    1W        W64367  20.370  17.713   0.103 -0.1809  0.0940 -0.1252
    1W        W64368  10.878  28.158   8.429 -0.0186 -0.0187 -0.0261
    1W        W64369   2.513  25.716   1.612 -0.2337 -0.0401 -0.3132
    1W        W64370  26.441  10.464   7.275  0.0409 -0.3310 -0.0936
    1W        W64371   6.018   5.938   8.163 -0.2567 -0.2319 -0.0919
    1W        W64372  18.147  28.163   7.002 -0.0087 -0.0446  0.2582
    1W        W64373   1.377  13.479   7.647  0.1751 -0.3110  0.0755
    1W        W64374   4.244  29.223   1.921 -0.1357 -0.0115 -0.1574
    1W        W64375   3.026  24.576   2.032 -0.2633 -0.1336  0.1371
    1W        W64376   7.666   8.845   1.305  0.0818 -0.1268  0.3125
    1W        W64377  29.845   2.748   8.064 -0.1203 -0.2974 -0.2192
    1W        W64378   0.076   7.593   1.816  0.2702  0.2826  0.0358
    1W        W64379  26.599   5.426   7.356 -0.2111  0.0251 -0.0661
    1W        W64380   3.793   1.071   1.566 -0.1536  0.0480 -0.1644
    1W        W64381  27.935  15.405   2.227 -0.1219 -0.2477 -0.1665
    1W        W64382  15.412  22.205   7.784  0.1804  0.0087  0.0215
    1W        W64383  21.765  28.269   0.398  0.0823  0.1840 -0.2449
    1W        W64384  11.394  12.091   1.837 -0.1383 -0.0297 -0.3544
    1W        W64385  14.092   1.955   9.050 -0.1448  0.0070  0.0748
    1W        W64386  23.749  19.394   1.756  0.1070 -0.1066  0.0667
    1W        W64387  16.850  11.036   6.771 -0.1403  0.1587  0.3686
    1W        W64388   2.985   3.465   9.199 -0.0478 -0.0590  0.1613
    1W        W64389   3.161   6.394   1.473  0.2626  0.1041 -0.0273
    1W        W64390  18.726  11.319   6.738 -0.0497 -0.1824 -0.2478
    1W        W64391   5.647   0.488   1.472  0.1009  0.1887 -0.3107
    1W        W64392  11.243  30.025   2.344 -0.2605 -0.0124  0.1978
    1W        W64393   7.805  14.520   7.816  0.0769  0.1101  0.0139
    1W        W64394  24.752  14.729   6.934  0.1552 -0.0753 -0.3079
    1W        W64395  16.944   3.868   6.273  0.2523  0.2053 -0.3621
    1W        W64396  26.898   2.686   1.810 -0.2474  0.1983  0.0993
    1W        W64397  15.854  21.506   1.048  0.1271  0.0890  0.0038
    1W        W64398   4.807  28.429   7.331 -0.2786 -0.0539 -0.2777
    1W        W64399  24.616  28.748   0.853 -0.2254 -0.0443 -0.0620
    1W        W64400  16.174  14.517   1.897  0.0070  0.1011  0.0481
    1W        W64401   5.221  25.083   1.979 -0.1865  0.2680  0.3060
    1W        W64402  27.017  12.122   8.937  0.0020  0.1129  0.0806
    1W        W64403  26.828   1.368   2.976 -0.1499 -0.2135 -0.0501
    1W        W64404   7.737   1.053   0.912 -0.0344 -0.0913  0.0725
    1W        W64405  17.823   8.665   2.468 -0.3674 -0.0028  0.3188
    1W        W64406  18.593  10.074   8.982 -0.2831  0.2768  0.2060
    1W        W64407   4.338   8.845   0.467 -0.1295 -0.1797 -0.1175
    1W        W64408  29.427  17.386   7.715 -0.2695  0.0332 -0.4932
    1W        W64409   0.035   7.987   8.841  0.0995  0.0949 -0.1073
    1W        W64410  26.350   3.882   1.770 -0.2162  0.1132 -0.4048
    1W        W64411  27.336  26.706   8.271  0.2286 -0.5078 -0.2045
    1W        W64412  13.544  17.232   8.047 -0.0194 -0.0693  0.2757
    1W        W64413  21.544  13.021   0.836  0.1844 -0.0311  0.1055
    1W        W64414   5.926   6.439   9.111  0.0853 -0.0198  0.1431
    1W        W64415   0.604   3.466   8.095 -0.0332 -0.1076 -0.0442
    1W        W64416  12.658   6.556   1.179  0.2120  0.0129 -0.1017
    1W        W64417   0.546  17.604   8.635 -0.1793 -0.1356  0.0912
    1W        W64418   3.825   1.397   9.014 -0.1469  0.0403 -0.2017
    1W        W64419  26.989   7.687   9.133  0.2803  0.2398  0.1046
    1W        W64420  12.650   1.783   7.131  0.0012  0.0955  0.1715
    1W        W64421  10.102  16.834   1.032 -0.2427 -0.1116 -0.1261
    1W        W64422  21.732  23.516   1.196 -0.0737  0.0225 -0.0011
    1W        W64423   9.920  16.307   2.458 -0.0430  0.2178  0.2521
    1W        W64424  14.683  18.288   9.045 -0.1302  0.0806 -0.0489
    1W        W64425   1.985  12.608   7.450 -0.3481  0.1194  0.0526
    1W        W64426   5.954  26.283   2.406  0.2451 -0.1733 -0.1935
    1W        W64427   0.024  22.401   8.209  0.5061 -0.1389  0.0159
    1W        W64428  26.285  24.122   7.377 -0.0521 -0.0026 -0.0104
    1W        W64429  12.146  20.669   0.690  0.0649  0.1209  0.0278
    1W        W64430  24.319   6.534   1.680 -0.3008 -0.5365  0.1100
    1W        W64431  23.607   6.683   2.281 -0.2720  0.2163  0.0281
    1W        W64432  16.409  23.477   1.119 -0.0488  0.0618 -0.1962
    1W        W64433  22.456   2.521   1.954 -0.2158  0.1869  0.0353
    1W        W64434   9.621   7.743   0.594 -0.0116  0.2703 -0.0436
    1W        W64435  29.068   0.396   7.596  0.2379 -0.1936  0.2045
    1W        W64436  12.671   9.095   2.600  0.0469 -0.0754 -0.1087
    1W        W64437  27.698  20.248   6.642 -0.0006 -0.1031  0.1527
    1W        W64438   2.444  27.036   6.698  0.0855  0.0438 -0.0569
    1W        W64439   9.238  26.283   1.290  0.0602 -0.0012  0.0979
    1W        W64440   1.062  29.835   0.334  0.0868 -0.0682  0.3163
    1W        W64441  25.196  13.576   2.283  0.0111  0.1501 -0.6988
    1W        W64442  22.921  17.029   8.311 -0.2160  0.1386  0.1667
    1W        W64443  15.326  10.098   0.574  0.1035  0.0941  0.1764
    1W        W64444   3.765   1.939   2.012 -0.0883 -0.3654  0.2518
    1W        W64445   6.363   2.250   7.539 -0.0885 -0.0409 -0.2979
    1W        W64446  21.896  18.948   7.347  0.2231  0.1097 -0.1411
    1W        W64447  11.361  12.289   2.637 -0.2312  0.1541  0.0748
    1W        W64448  25.325  11.043   0.361 -0.0261  0.1603  0.0125
    1W        W64449  28.048   6.710   8.848 -0.1329 -0.0579  0.0855
    1W        W64450  24.809  14.859   7.757  0.0915  0.1063 -0.0252
    1W        W64451  17.895   3.453   2.205  0.0637  0.1731 -0.2160
    1W        W64452   0.214  12.121   6.235  0.0785  0.1562  0.3157
    1W        W64453  10.713  22.490   8.264 -0.1934 -0.0159 -0.1516
    1W        W64454   2.394  16.547   7.902 -0.3306  0.2989 -0.0704
    1W        W64455   9.293  26.447   2.491 -0.0595 -0.3220  0.1064
    1W        W64456  12.259   5.877   1.694 -0.0508  0.0870 -0.2318
    1W        W64457   7.445  18.597   1.093  0.0026  0.0939 -0.2515
    1W        W64458  18.971  10.446   0.404 -0.0053  0.3456 -0.3623
    1W        W64459  16.690   2.179   2.947  0.3101 -0.1807  0.0978
    1W        W64460  24.732  13.162   0.157 -0.1976 -0.1679  0.0081
    1W        W64461  23.370  25.731   6.950 -0.3051 -0.4194  0.0602
    1W        W64462  14.582   8.001   1.043 -0.3063 -0.1757  0.1913
    1W        W64463  20.060  15.728   2.828 -0.2351 -0.2428 -0.0103
    1W        W64464   0.434   7.029   8.785  0.2924 -0.2096  0.0539
    1W        W64465  17.875  13.996   7.220 -0.2964  0.0679  0.2416
    1W        W64466  29.380   3.797   2.049 -0.1377 -0.0018  0.0496
    1W        W64467  20.449  25.322   1.276 -0.1435  0.2757 -0.2032
    1W        W64468  10.843  13.459   2.898 -0.1182 -0.0456 -0.1229
    1W        W64469  24.194  11.351   1.642  0.4166  0.1356 -0.2526
    1W        W64470   0.368   7.221   8.297  0.2442 -0.3426  0.3928
    1W        W64471  25.980  20.712   1.948 -0.0732 -0.0235  0.0308
    1W        W64472   6.319   3.663   2.048 -0.2973 -0.0708 -0.3917
    1W        W64473  13.541   2.598   7.092 -0.1549  0.0666 -0.3482
    1W        W64474   6.027  13.399   7.204 -0.0788 -0.1493  0.4049
    1W        W64475   9.185  15.826   1.567  0.3360  0.2427 -0.3166
    1W        W64476   0.775  12.932   7.384 -0.0815  0.3462  0.1063
    1W        W64477   8.209  10.953   6.859 -0.4457 -0.0449 -0.1809
    1W        W64478   5.479   0.232   0.147  0.2839 -0.2425  0.1059
    1W        W64479  20.506  16.634   1.844 -0.1088 -0.1058 -0.0437
    1W        W64480  26.743   2.724   1.023 -0.3878  0.0890  0.1536
    1W        W64481   5.479   6.006   1.916 -0.2128 -0.2361 -0.1552
    1W        W64482   2.342  17.773   0.665 -0.1664 -0.0568 -0.0683
    1W        W64483   3.047  15.525   6.646 -0.0615 -0.4059  0.0239
    1W        W64484  20.470  13.596   0.385  0.0474  0.1840 -0.1049
    1W        W64485  29.126   9.867   2.179  0.0042 -0.1421  0.0527
    1W        W64486  19.927  12.440   0.710 -0.0394 -0.1871  0.2189
    1W        W64487   0.554   4.555   1.947 -0.3532  0.0704  0.1876
    1W        W64488   2.741  22.216   9.008 -0.2351  0.1199 -0.0366
    1W        W64489  25.212   9.321   7.197  0.2321 -0.0112 -0.1680
    1W        W64490  19.639  18.358   5.983 -0.1063  0.1955  0.1189
    1W        W64491  18.160  26.242   7.150  0.1467 -0.0090  0.1372
    1W        W64492  27.187  26.297   0.023 -0.1249  0.0606  0.1883
    1W        W64493  21.614  28.993   1.156  0.0002  0.0413  0.3556
    1W        W64494  21.348  18.207   6.170  0.4133 -0.1696 -0.0174
    1W        W64495   9.686  26.945   6.984  0.0593 -0.0583 -0.0163
    1W        W64496   0.800  26.228   0.140  0.2553  0.1754 -0.0855
    1W        W64497  21.169   1.815   6.975 -0.0621 -0.1520  0.2214
    1W        W64498  24.980  13.148   6.808  0.1346  0.0064 -0.0058
    1W        W64499   2.134  10.247   8.605 -0.0150  0.0109  0.1510
    1W        W64500   9.744   0.745   8.899  0.1976  0.0114  0.0723
    1W        W64501  25.586  18.907   9.226 -0.0625  0.0070  0.0732
    1W        W64502   4.969   8.408   7.264 -0.0365  0.2321  0.1322
    1W        W64503  25.706  19.243   8.567 -0.2295 -0.0219 -0.0035
    1W        W64504  13.669   3.036   7.284 -0.0444  0.0657 -0.4470
    1W        W64505  29.713  17.342   1.039  0.0746  0.0712 -0.2242
    1W        W64506   4.798  16.855   7.662  0.0529 -0.0463  0.1892
    1W        W64507  13.793  29.187   8.922  0.1736 -0.0198  0.2141
    1W        W64508  27.686   8.230   0.355  0.1335  0.1480  0.4175
    1W        W64509   9.959  30.345   7.304 -0.0785  0.0656 -0.0815
    1W        W64510   9.709  29.199   1.944  0.2271 -0.1995  0.6555
    1W        W64511  11.144  23.202   6.711  0.0831  0.1308  0.2949
    1W        W64512   2.048   2.815   8.373  0.1969 -0.1271 -0.1523
    1W        W64513  12.409  19.482   8.439 -0.1075 -0.3366 -0.0513
    1W        W64514   7.798  18.861   7.206 -0.1954 -0.0368  0.2672
    1W        W64515   0.993   8.782   0.232 -0.1256 -0.0749 -0.0055
    1W        W64516  14.703  12.274   1.373  0.1519 -0.0931 -0.1669
    1W        W64517   1.478  23.760   0.147 -0.2126  0.2626  0.0017
    1W        W64518   5.111  25.183   1.078  0.1274  0.0513 -0.1431
    1W        W64519   9.840   0.319   1.683  0.2110 -0.0146 -0.1560
    1W        W64520   3.879  20.814   7.192 -0.2489  0.0908 -0.0443
    1W        W64521  22.875  21.675   0.170  0.2174  0.0802 -0.1935
    1W        W64522  15.107  20.770   6.760 -0.0534 -0.0272 -0.1634
    1W        W64523  29.394  17.879   0.549 -0.3395 -0.3961 -0.1504
    1W        W64524   5.000  25.904   7.410  0.1819 -0.2095 -0.0576
    1W        W64525  24.652  13.518   6.824 -0.0960 -0.1228  0.0639
    1W        W64526   9.768   3.601   2.088  0.2410 -0.2629 -0.1970
    1W        W64527   0.142  22.786   0.698 -0.2046  0.2158  0.1830
    1W        W64528  10.891   8.693   7.864 -0.2498 -0.1038 -0.0557
    1W        W64529  16.442  26.863   9.157  0.2753  0.0079 -0.2370
    1W        W64530  17.571   4.964   0.070  0.0188 -0.0582  0.1108
    1W        W64531  26.935  22.752   7.734  0.1144  0.0389 -0.1687
    1W        W64532  21.179   7.974   2.263 -0.0078  0.0924 -0.1019
    1W        W64533  28.310  24.237   6.962 -0.2120  0.0238  0.1844
    1W        W64534  30.051  18.000   8.723  0.0966  0.4777  0.1539
    1W        W64535  23.842   0.159   7.633  0.2124 -0.2594  0.1828
    1W        W64536   4.702  26.060   1.075 -0.0062 -0.0402 -0.0682
    1W        W64537  12.323  10.877   7.852  0.3641  0.1463 -0.1074
    1W        W64538   1.575   7.717   9.108  0.0220 -0.1325 -0.0377
    1W        W64539  29.637  25.319   1.933  0.1251 -0.1394  0.0578
    1W        W64540  26.424  22.567   2.436  0.1441 -0.0703 -0.2871
    1W        W64541  13.024  10.313   3.028  0.0771 -0.3154 -0.1279
    1W        W64542   0.025   3.164   0.100 -0.0733  0.0049 -0.1371
    1W        W64543  16.863  10.576   6.197  0.4770  0.2721  0.0146
    1W        W64544  17.735  10.711   8.971  0.0011 -0.0562  0.2056
    1W        W64545  28.764  14.149   1.168 -0.1118 -0.1108  0.1966
    1W        W64546  10.367   8.885   6.767  0.1497  0.0184 -0.2271
    1W        W64547  24.695  22.173   8.989 -0.0266  0.0920  0.4129
    1W        W64548  17.529   5.897   1.017  0.1346 -0.0035 -0.1571
    1W        W64549  23.355  10.928   8.186 -0.0342 -0.1749  0.1209
    1W        W64550  29.998   0.343   8.851 -0.2533  0.4065 -0.1869
    1W        W64551   9.761   1.880   7.044  0.1057  0.0480 -0.2516
    1W        W64552  11.562  16.841   0.957 -0.0760  0.1600  0.0117
    1W        W64553   5.355  10.113   0.011  0.1194 -0.0981  0.1057
    1W        W64554   6.386  12.965   8.542 -0.1581  0.1655 -0.0107
    1W        W64555   9.449  10.507   7.885  0.1093 -0.0324  0.1803
    1W        W64556  21.117  16.128   1.367 -0.2416  0.1386 -0.3292
    1W        W64557  17.200  14.535   2.185 -0.2238 -0.2957 -0.2822
    1W        W64558  28.281  16.579   7.849 -0.0128 -0.2309  0.1423
    1W        W64559   6.460  11.561   1.709 -0.0707 -0.0549 -0.0696
    1W        W64560  26.504   8.424   7.628  0.1834  0.0093  0.1368
    1W        W64561  27.724  28.527   3.172  0.1131 -0.3467  0.0967
    1W        W64562  21.157   7.189   0.857 -0.0416 -0.0280 -0.1059
    1W        W64563   8.064   3.893   3.862 -0.0601 -0.1154  0.0477
    1W        W64564  24.681  19.201   8.083  0.2318  0.0485 -0.1173
    1W        W64565  28.433  20.161   9.050 -0.0855  0.3217 -0.1932
    1W        W64566   7.746   9.556   9.070  0.0248 -0.2687 -0.1413
    1W        W64567  12.040   7.096   8.175  0.0132 -0.2606  0.1753
    1W        W64568  19.627  24.050   0.511 -0.0083 -0.0824  0.0072
    1W        W64569   5.408  16.774   8.922 -0.1930 -0.3010  0.0450
    1W        W64570   7.304  11.001   7.388  0.1386  0.1945  0.2075
    1W        W64571   5.440  26.836   7.654 -0.0738  0.2348 -0.0479
    1W        W64572  28.966   3.196   2.328 -0.0272 -0.1071  0.1484
    1W        W64573  28.545  16.280   8.828  0.1389  0.1085 -0.0685
    1W        W64574  12.266  24.843   7.744  0.0254 -0.0938  0.0247
    1W        W64575   6.514   3.393   2.531  0.0483 -0.0821  0.1129
    1W        W64576   5.143   4.614   7.318 -0.1184  0.0208  0.2193
    1W        W64577  30.245  23.289   1.946  0.0528  0.1217 -0.2401
    1W        W64578  27.451  15.921   1.494  0.0282  0.0207  0.0405
    1W        W64579  29.003  17.844   8.582  0.1258 -0.2180 -0.0447
    1W        W64580   3.967  30.279   0.844  0.0389  0.0506 -0.0168
    1W        W64581  13.353   8.355   2.429  0.1122  0.0718  0.1065
    1W        W64582  15.224  16.631   2.875 -0.2051 -0.0133 -0.0595
    1W        W64583  10.318  30.337   8.137 -0.2684 -0.5375  0.0386
    1W        W64584  23.490  17.352   0.374  0.0131 -0.0822  0.1466
    1W        W64585  22.847  18.957   8.658 -0.0116  0.2588 -0.0787
    1W        W64586  14.474  28.398   1.856 -0.1416  0.0366 -0.0579
    1W        W64587  15.501  24.860   6.439  0.4366 -0.0670  0.1169
    1W        W64588  20.241   1.559   8.043  0.1612  0.1179 -0.0248
    1W        W64589  16.590  29.218   2.650 -0.0193 -0.2705 -0.1507
    1W        W64590  17.221  23.964   7.971  0.1487  0.2350 -0.2370
    1W        W64591  23.527  19.459   2.445  0.2422  0.1963  0.1552
    1W        W64592  11.645   1.081   8.796 -0.2308 -0.3201  0.2652
    1W        W64593  21.158  26.125   2.066 -0.2058  0.1115  0.0026
    1W        W64594  29.000  27.241   1.348  0.0507 -0.1886 -0.1872
    1W        W64595  25.335   0.400   1.794  0.3618 -0.1010 -0.2317
    1W        W64596  15.039  13.517   9.246  0.0040  0.0841  0.0087
    1W        W64597  19.770  29.238   7.811  0.0545  0.2501  0.1715
    1W        W64598   9.368  26.651   0.422  0.1802  0.2275 -0.0688
    1W        W64599  20.337  14.900   2.558 -0.0326 -0.3018  0.0651
    1W        W64600  20.383  20.426   5.914  0.1727 -0.4494 -0.1093
    1W        W64601  23.865  27.431   7.012  0.1432 -0.1362  0.2999
    1W        W64602  30.137  16.425   1.099 -0.0188  0.2506 -0.0368
    1W        W64603  16.289  24.321   9.097 -0.1865  0.1133  0.1397
    1W        W64604  10.310  11.077   1.797  0.1282 -0.0936 -0.0140
    1W        W64605  26.981  23.246   6.615 -0.0499 -0.0233 -0.0943
    1W        W64606   1.740   8.656   1.916  0.1489  0.3983 -0.0969
    1W        W64607  23.156  18.566   8.548 -0.1665  0.1735 -0.0614
    1W        W64608  18.146   3.895   2.037  0.0301 -0.2207 -0.0441
    1W        W64609  19.059  24.118   8.930  0.0444 -0.0361 -0.0826
    1W        W64610  21.485  20.127   9.088 -0.1019  0.0651 -0.0148
    1W        W64611  11.768  19.542   8.740 -0.1294  0.3170 -0.0347
    1W        W64612  15.065  28.557   8.003  0.2899 -0.1533  0.1118
    1W        W64613  29.682  17.617   8.191 -0.0304  0.1480 -0.3458
    1W        W64614  15.731  12.512   0.788 -0.1429  0.1551  0.0748
    1W        W64615  11.600   7.321   8.241 -0.1280 -0.0806 -0.0042
    1W        W64616  19.126  21.696   8.262 -0.3730 -0.1353 -0.1163
    1W        W64617   1.616   5.437   2.564  0.1730  0.1641 -0.3412
    1W        W64618  10.036   9.806   8.317  0.0317 -0.0745 -0.1039
    1W        W64619   4.459  20.471   6.196 -0.1433 -0.0560 -0.0144
    1W        W64620  25.032  18.298   0.446  0.0532  0.4642 -0.1844
    1W        W64621  23.062   1.615   0.617 -0.0429 -0.0154 -0.0583
    1W        W64622  19.115   2.882   1.726  0.0282 -0.2315 -0.5216
    1W        W64623  16.180  29.145   2.307 -0.2036 -0.0104  0.2202
    1W        W64624  26.497   5.548   1.152  0.1141  0.0063 -0.1190
    1W        W64625  16.822  27.561   0.360  0.5379 -0.0769  0.1818
    1W        W64626  27.644   6.077   7.373  0.1472 -0.1129  0.1285
    1W        W64627   9.261   0.088   6.187  0.1927  0.0681  0.3112
    1W        W64628  30.094  10.735   1.672 -0.1387  0.2649 -0.0340
    1W        W64629  25.085  22.762   7.001 -0.1341  0.0333 -0.0435
    1W        W64630  22.802   3.629   1.280 -0.2941  0.2769  0.0011
    1W        W64631  20.949  11.526   2.737  0.3354 -0.2414 -0.1440
    1W        W64632  27.732   7.216   7.845  0.2066 -0.1848  0.1000
    1W        W64633  26.136  27.992   7.084 -0.0923  0.2472  0.2754
    1W        W64634  26.971   3.289   7.059 -0.0968 -0.0325  0.0373
    1W        W64635   5.948  12.081   8.484  0.0722 -0.0592  0.3164
    1W        W64636  16.254  21.007   7.700 -0.0354 -0.0544  0.0631
    1W        W64637   6.779   1.401   2.914 -0.2424 -0.3309  0.0902
    1W        W64638   4.014  13.358   7.323 -0.0552 -0.2229  0.0560
    1W        W64639  10.692  16.854   9.244 -0.1395 -0.0088 -0.3684
    1W        W64640  15.374  18.915   1.347 -0.1646 -0.2315 -0.1694
    1W        W64641  26.872  14.989   7.738  0.3400 -0.1185 -0.0805
    1W        W64642   7.458  19.059   1.516  0.0056  0.1058 -0.0104
    1W        W64643  20.029   2.020   7.271 -0.0256 -0.1368  0.1398
    1W        W64644  25.984   5.469   8.811  0.0548  0.2661  0.1531
    1W        W64645  21.579  28.499   1.415 -0.0375 -0.3769  0.0089
    1W        W64646  19.810   0.170   8.263  0.0341 -0.0812  0.0129
    1W        W64647   7.506  27.397   2.992  0.0209 -0.0162  0.3129
    1W        W64648  10.447  16.297   0.435  0.0086 -0.1531 -0.2141
    1W        W64649  20.073  26.488   0.683 -0.0068 -0.0905 -0.0277
    1W        W64650  24.186  18.738   0.033  0.2054 -0.1520 -0.0439
    1W        W64651  28.208  24.710   6.896  0.0832  0.0214 -0.0666
    1W        W64652   5.991   5.021   0.837  0.1735  0.0207 -0.3154
    1W        W64653  22.782  23.293   7.219 -0.2050  0.0030 -0.2064
    1W        W64654   6.269   4.702   8.593 -0.3192  0.2003  0.1031
    1W        W64655  21.399  22.840   0.385  0.0210 -0.1089  0.1714
    1W        W64656  24.619   1.625   6.968 -0.5344  0.0883 -0.0239
    1W        W64657  11.785  27.860   0.221  0.3588 -0.0620 -0.1343
    1W        W64658  24.836   4.510   7.795 -0.0536 -0.2895  0.0139
    1W        W64659  22.006  24.333   8.379  0.3125 -0.1279  0.0935
    1W        W64660   6.795  11.240   6.317 -0.1766  0.0056 -0.0209
    1W        W64661  22.799  14.125   7.949  0.4572  0.2555 -0.1564
    1W        W64662   8.811  14.836   0.414  0.1594 -0.4265 -0.0896
    1W        W64663  20.634   6.394   6.339 -0.0351  0.2020 -0.0216
    1W        W64664  25.316   3.089   7.568  0.0008  0.0019 -0.4092
    1W        W64665   0.166  28.724   3.138  0.2719 -0.1033  0.0929
    1W        W64666   6.527  19.167   0.509 -0.0806  0.0526  0.2076
    1W        W64667   0.761  10.128   2.535  0.0487 -0.1262 -0.1337
    1W        W64668  24.411  18.611   7.381  0.2576 -0.1395  0.2643
    1W        W64669   0.001   3.166   2.383  0.1466 -0.1627 -0.2290
    1W        W64670  23.500  21.793   1.954  0.1286  0.4121  0.1668
    1W        W64671  20.084  19.135   0.474  0.0792 -0.3905 -0.1804
    1W        W64672  18.521  29.059   3.374 -0.4148 -0.3081 -0.0444
    1W        W64673   5.296  28.314   7.512  0.2067 -0.1718  0.2843
    1W        W64674  28.487  25.284   8.928  0.1274  0.0233  0.1098
    1W        W64675  25.122   0.278   0.836  0.1228  0.2305  0.3052
    1W        W64676  28.598   6.571   1.512 -0.0750 -0.2931 -0.0053
    1W        W64677  16.738  24.278   0.056 -0.1617  0.0622 -0.1316
    1W        W64678  19.511   8.503   1.820  0.0118  0.1991 -0.1433
    1W        W64679   9.216   4.411   2.359  0.1240  0.1709  0.3725
    1W        W64680   3.660  26.016   0.148 -0.0815  0.3161  0.2415
    1W        W64681   4.181  15.255   9.248  0.1596  0.0826 -0.0775
    1W        W64682   9.263   0.203   2.473 -0.1267  0.2486 -0.3149
    1W        W64683  12.322  12.722   8.520 -0.0169 -0.0202 -0.0182
    1W        W64684  19.404   3.435   8.466  0.1570  0.0603 -0.1827
    1W        W64685  19.027   0.494   2.474 -0.0760  0.0043 -0.0874
    1W        W64686  12.780   3.061   0.602  0.0470  0.1255  0.1021
    1W        W64687   5.742   0.244   1.879 -0.0586 -0.0200  0.1574
    1W        W64688  22.550  27.998   9.265 -0.0389  0.0334  0.0019
    1W        W64689   7.652  27.515   0.397 -0.2644  0.0884 -0.0621
    1W        W64690  24.213  11.386   0.919 -0.1145  0.2252  0.1509
    1W        W64691  10.812  15.994   0.773  0.2497  0.0753 -0.1882
    1W        W64692  21.237  25.216   6.314 -0.0228  0.2985  0.0952
    1W        W64693   6.322   6.014   1.708  0.0723 -0.1806  0.2410
    1W        W64694  29.132   4.242   1.499  0.3557  0.0168  0.2533
    1W        W64695   8.688  29.063   2.462  0.1162  0.0564 -0.0211
    1W        W64696  28.130  17.682   8.306  0.2672  0.1325  0.1350
    1W        W64697  21.580  12.274   7.512 -0.2015  0.1731  0.0869
    1W        W64698   0.369   5.778   8.851 -0.0543 -0.0728 -0.1374
    1W        W64699  11.823   0.595   0.777 -0.0233 -0.2866  0.0300
    1W        W64700   3.932   8.534   7.321  0.3600  0.3409  0.0975
    1W        W64701   1.512  27.644   2.615 -0.4132  0.1578 -0.0138
    1W        W64702  18.635   9.020   9.112  0.2902  0.0360 -0.0979
    1W        W64703  15.172   3.733   8.008 -0.2533 -0.0102  0.1118
    1W        W64704  20.876  23.612   6.266 -0.1169 -0.0049  0.0546
    1W        W64705  29.064  19.859   6.860 -0.1629 -0.1650  0.0740
    1W        W64706  13.205   9.725   7.997 -0.0264  0.1874 -0.3269
    1W        W64707   2.884   1.707   1.996  0.4080  0.0651  0.2132
    1W        W64708  29.768  18.228   1.568 -0.1000  0.2487  0.1076
    1W        W64709  27.689  19.142   9.186 -0.0510 -0.0000  0.2581
    1W        W64710   2.376  27.637   0.533  0.1929  0.0396  0.1369
    1W        W64711  27.177   6.710   3.323  0.0639  0.1063  0.0318
    1W        W64712  14.836  27.923   2.198  0.1851  0.2605  0.0276
    1W        W64713  18.454  19.200   6.840  0.2125 -0.1535  0.0139
    1W        W64714  10.125  21.639   1.289  0.1606  0.0596  0.0445
    1W        W64715  20.468  24.068   2.656 -0.0974 -0.4276 -0.4254
    1W        W64716  17.699  24.563   2.813 -0.0666 -0.0857 -0.1404
    1W        W64717  20.186  23.419   8.248  0.4186  0.2220  0.1143
    1W        W64718  24.801  27.837   6.973 -0.0305  0.3223 -0.2056
    1W        W64719  19.829   0.401   7.699  0.1010  0.1866 -0.1483
    1W        W64720   9.081  13.690   8.619  0.2332  0.2331 -0.0594
    1W        W64721   8.814  28.105   0.876 -0.1561 -0.2262 -0.1990
    1W        W64722  16.874  13.050   8.764  0.0490 -0.0884 -0.0744
    1W        W64723  16.399  29.896   6.914  0.5306 -0.3328 -0.0622
    1W        W64724  10.561   3.773   1.187 -0.0347  0.2693 -0.1973
    1W        W64725  13.806  15.972   2.953  0.0466  0.4520 -0.2713
    1W        W64726  21.942   0.736   3.377  0.2497  0.0545  0.1572
    1W        W64727  15.388  26.730   0.676 -0.3723  0.0294 -0.2756
    1W        W64728  27.230  17.124   0.986  0.1663 -0.2773  0.1207
    1W        W64729  11.774  26.352   8.131  0.1927  0.0229 -0.2594
    1W        W64730   5.863   7.084   6.241 -0.1840  0.2799 -0.1402
    1W        W64731  29.697   8.642   1.759  0.0195 -0.0951  0.3848
    1W        W64732  18.511  30.151   8.067  0.2354  0.0916 -0.3081
    1W        W64733  16.698   6.907   1.280  0.0616  0.0143 -0.1714
    1W        W64734  13.320  30.038   9.056 -0.1754 -0.2294 -0.0788
    1W        W64735   2.565  14.789   9.082  0.0873  0.0245 -0.6343
    1W        W64736  27.343  24.322   9.089 -0.1720 -0.1123  0.2297
    1W        W64737  18.710   8.877   2.103 -0.1314  0.0408 -0.1228
    1W        W64738  23.606  17.157   7.589  0.0101 -0.0286  0.0826
    1W        W64739   2.128  24.304   0.947  0.1002  0.0150 -0.3081
    1W        W64740   6.318  10.531   8.282  0.3298 -0.2945  0.2111
    1W        W64741  30.103  16.529   7.085 -0.1991 -0.1588  0.0604
    1W        W64742   3.644   7.116   2.693  0.0521 -0.0741 -0.2648
    1W        W64743  19.700  10.039   7.903  0.0019 -0.1545 -0.0487
    1W        W64744  15.174   3.049   0.537 -0.2004  0.1558 -0.1425
    1W        W64745  13.853  24.466   0.150  0.0710  0.0317 -0.1517
    1W        W64746  30.151   2.774   9.122 -0.0966 -0.1861 -0.2004
    1W        W64747  24.696  21.619   8.240  0.2791 -0.1340  0.3875
    1W        W64748  22.307  16.711   0.898 -0.0230  0.0681 -0.0025
    1W        W64749  19.548   2.664   8.585  0.3011  0.1224  0.0632
    1W        W64750   9.654   6.126   8.053  0.0601  0.2639  0.3196
    1W        W64751  17.719   8.706   6.716  0.1870 -0.0625  0.0121
    1W        W64752  26.131  23.729   0.908 -0.1678 -0.1335  0.0422
    1W        W64753  21.187   1.762   1.483 -0.1607  0.2672 -0.0584
    1W        W64754  19.538   2.691   7.204 -0.0474  0.1221  0.1882
    1W        W64755  11.028   1.397   6.615  0.0646  0.0933 -0.3254
    1W        W64756  29.050  14.756   7.675  0.1389 -0.3616  0.1353
    1W        W64757  17.244   4.040   2.155 -0.1038 -0.2071 -0.0956
    1W        W64758   9.951   8.695   8.131 -0.3438  0.1064  0.1702
    1W        W64759   3.853  23.841   1.385 -0.1161 -0.0500  0.4059
    1W        W64760  27.248   3.749   3.358 -0.0196 -0.1886  0.0786
    1W        W64761  15.496  29.112   1.028 -0.1796 -0.0754  0.1777
    1W        W64762  24.853  30.341   1.719  0.1369 -0.3521  0.0599
    1W        W64763   2.791  22.157   1.200  0.0464  0.1187 -0.0068
    1W        W64764   2.118  15.076   0.182  0.3015 -0.2329 -0.1368
    1W        W64765   3.569   6.726   1.518  0.3859 -0.0949  0.1038
    1W        W64766   0.869   8.310   0.073 -0.3373  0.3160 -0.2070
    1W        W64767  13.797  21.652   0.563  0.0430 -0.0071 -0.2278
    1W        W64768  28.027   8.086   8.898 -0.4039 -0.2891  0.1131
    1W        W64769  25.033  27.905   9.197  0.2298  0.3235 -0.0812
    1W        W64770  21.898  21.502   6.710  0.3090 -0.1166 -0.2561
    1W        W64771  29.370   8.497   2.246  0.1468  0.2109 -0.0222
    1W        W64772  17.570  17.041   9.062  0.1050  0.0401 -0.2156
    1W        W64773   0.758  15.602   0.289  0.1410 -0.1071  0.0664
    1W        W64774  21.740  27.497   8.580 -0.0209 -0.0501 -0.2017
    1W        W64775  26.457  12.306   0.860  0.0645 -0.0130 -0.1710
    1W        W64776  25.672   9.013   2.668 -0.1622  0.0020 -0.2370
    1W        W64777   9.331  19.412   1.855  0.1425  0.1433 -0.1896
    1W        W64778  20.361   7.152   1.496  0.0042 -0.0632  0.2870
    1W        W64779  15.804  24.688   6.037 -0.2621 -0.0247 -0.1626
    1W        W64780  29.018  20.432   8.320 -0.1240  0.1387  0.0005
    1W        W64781   0.683  24.092   0.924  0.0213 -0.1385  0.0453
    1W        W64782  22.424   9.935   6.731  0.1231 -0.1579 -0.0505
    1W        W64783  19.109  20.801   2.526 -0.1098  0.0227  0.0866
    1W        W64784   8.050   2.364   8.622  0.0868 -0.0751 -0.0422
    1W        W64785  20.726  25.663   8.910  0.1967 -0.1512  0.0993
    1W        W64786  15.651   7.550   7.846  0.1163  0.1681  0.0284
    1W        W64787   6.379  29.942   8.317 -0.1459  0.2195 -0.1439
    1W        W64788  13.087   7.348   8.997  0.1608 -0.2100 -0.1025
    1W        W64789   3.800   1.422   3.526 -0.1969 -0.0359 -0.0901
    1W        W64790  16.128  29.378   8.081 -0.0678 -0.1633 -0.3604
    1W        W64791  28.338  23.702   0.976 -0.1872  0.1809 -0.2153
    1W        W64792  27.021  13.601   0.548 -0.0041  0.1772 -0.0750
    1W        W64793  27.008  25.354   2.498 -0.0177 -0.2812  0.1767
    1W        W64794  14.921  19.837   0.815 -0.3324 -0.5613 -0.1858
    1W        W64795  24.154  20.582   9.064  0.1921 -0.2296  0.2419
    1W        W64796  15.092  12.831   9.109 -0.1060 -0.0784  0.1291
    1W        W64797   0.854  29.966   9.135 -0.0543  0.2676  0.2924
    1W        W64798  18.635  26.311   0.825  0.1518  0.1270  0.2069
    1W        W64799   8.394  22.910   0.756 -0.1079  0.0857  0.1235
    1W        W64800  18.579  27.102   1.470 -0.3204  0.2304  0.0853
    1W        W64801  24.076  29.477   3.142  0.1837 -0.2573 -0.2263
    1W        W64802  15.770  30.205   8.031 -0.1008  0.1469  0.1087
    1W        W64803  13.136   5.915   9.184 -0.0830 -0.1152  0.1012
    1W        W64804  28.739   0.628   9.230 -0.1079 -0.0957  0.2017
    1W        W64805  25.563  20.742   0.142  0.1950  0.0201  0.6023
    1W        W64806  13.717  27.175   0.055 -0.1337  0.3020  0.0392
    1W        W64807   6.274  26.634   7.797  0.3451  0.1899  0.0849
    1W        W64808   2.548  30.241   3.750  0.0201  0.0234 -0.0140
    1W        W64809  18.704  17.353   8.402 -0.0110  0.2692  0.0783
    1W        W64810  25.297  14.621   7.138 -0.0052  0.1101  0.0388
    1W        W64811  27.874   1.772   2.110  0.0250  0.1779 -0.2117
    1W        W64812  10.614  20.237   7.005  0.1967 -0.1864 -0.2058
    1W        W64813   2.090  29.771   8.298  0.1059 -0.1588 -0.0181
    1W        W64814   9.560  28.288   7.264  0.0942  0.2665 -0.2970
    1W        W64815  21.949   7.527   1.182  0.2204 -0.2391  0.1637
    1W        W64816  20.594  14.505   6.078 -0.0859  0.0767 -0.2385
    1W        W64817  11.840   9.466   9.203  0.2237  0.0871  0.2574
    1W        W64818  18.046  25.784   2.469 -0.2190  0.0054 -0.1180
    1W        W64819  25.595  17.109   6.837  0.0308  0.4949  0.1522
    1W        W64820  27.474   2.595   0.726 -0.0423 -0.1773 -0.2394
    1W        W64821  20.844  27.659   2.156  0.3630 -0.1357 -0.2760
    1W        W64822  22.991  26.561   0.795  0.1023  0.0652  0.0014
    1W        W64823   2.778   1.655   0.481 -0.2885 -0.1889  0.1735
    1W        W64824  22.127  12.269   8.170 -0.0468  0.0586 -0.0603
    1W        W64825  23.500  17.574   7.103  0.1126 -0.2265  0.0757
    1W        W64826  10.827  29.850   0.461 -0.2005 -0.2412  0.0337
    1W        W64827  23.985  15.634   7.812 -0.2282  0.1789 -0.1824
    1W        W64828   2.805  29.758   1.798  0.2068 -0.1586  0.0868
    1W        W64829  13.313  24.671   1.842 -0.1693  0.0298  0.0992
    1W        W64830  22.194  13.087   1.466  0.0074  0.4094 -0.1614
    1W        W64831   7.164   0.662   1.712 -0.1666 -0.0132 -0.1542
    1W        W64832   1.798   0.346   1.212 -0.1633 -0.3302  0.0537
    1W        W64833  14.189  22.509   8.128 -0.0778  0.1081 -0.2074
    1W        W64834  15.379   4.290   9.218 -0.1086  0.1718 -0.2147
    1W        W64835  16.157  16.318   2.600 -0.1131 -0.1987  0.0138
    1W        W64836   3.889  18.851   7.948  0.0020  0.1313  0.0893
    1W        W64837  11.109   9.988   6.841 -0.1737  0.1931  0.0896
    1W        W64838  30.335  16.181   7.362 -0.0863  0.3707 -0.0716
    1W        W64839   8.559   7.260   3.390  0.2156 -0.2976 -0.0345
    1W        W64840  23.194  21.323   2.651 -0.1815 -0.3399 -0.3472
    1W        W64841  15.358  18.856   7.843  0.0779 -0.2692 -0.0211
    1W        W64842   2.537  11.404   1.449  0.1772  0.1204  0.0567
    1W        W64843   3.813   7.081   1.805  0.2206  0.1128 -0.2911
    1W        W64844   3.443  25.910   0.660  0.0152  0.1221 -0.0496
    1W        W64845   0.822  24.488   8.812  0.1772  0.0332  0.2335
    1W        W64846  22.118   9.323   1.791 -0.2240 -0.1462  0.3375
    1W        W64847  25.859  20.026   8.143 -0.0310 -0.0037 -0.1125
    1W        W64848  30.013  30.100   1.336  0.1938 -0.0223  0.0072
    1W        W64849  13.365  20.835   1.663  0.2508  0.0650 -0.0741
    1W        W64850   4.270  20.727   7.482  0.0125 -0.0054 -0.0386
    1W        W64851   7.748  10.479   8.182 -0.1051  0.0248  0.1837
    1W        W64852  25.008   9.104   7.651  0.3826  0.4585 -0.0215
    1W        W64853  24.351  20.071   6.784 -0.0596  0.0741 -0.1179
    1W        W64854  17.646  25.275   8.412  0.0890 -0.0493  0.3225
    1W        W64855   9.349  23.604   8.641  0.0512  0.0027 -0.0736
    1W        W64856   5.210   2.064   3.688 -0.1029  0.1985  0.1394
    1W        W64857   8.530  11.955   8.740  0.2681 -0.1559 -0.4616
    1W        W64858   4.967  23.757   0.743  0.1449 -0.0425  0.5858
    1W        W64859  17.149  23.773   8.918  0.0866 -0.0041 -0.1422
    1W        W64860  26.843  13.644   7.218 -0.0041  0.0159 -0.0316
    1W        W64861  18.090   0.742   0.468 -0.0036 -0.2157  0.0386
    1W        W64862  12.044  13.762   9.250 -0.1656  0.0659 -0.0798
    1W        W64863  12.613  14.679   9.158 -0.1584  0.1003 -0.0663
    1W        W64864  19.413  17.894   6.975 -0.0745 -0.0570  0.1625
    1W        W64865  19.900   2.135   0.820 -0.3069  0.1019  0.2713
    1W        W64866  27.338  12.034   0.056 -0.1916 -0.3333  0.1141
    1W        W64867  26.918   8.616   7.267 -0.0293 -0.2725 -0.2319
    1W        W64868  16.400   1.208   7.587 -0.0499  0.2306  0.0156
    1W        W64869  22.392  24.925   7.708 -0.2991 -0.2634  0.1472
    1W        W64870  13.024  24.110   0.479  0.2250 -0.0295  0.0931
    1W        W64871  21.986  12.464   7.325 -0.1015 -0.2466  0.0635
    1W        W64872   8.383  20.303   2.105 -0.0791 -0.2252  0.0753
    1W        W64873   2.939  12.254   7.515  0.0399  0.0367  0.1279
    1W        W64874  13.283  30.116   1.789 -0.1387  0.0556  0.4099
    1W        W64875  26.809  16.399   8.155 -0.0311  0.0288  0.0445
    1W        W64876  21.728  27.028   8.405  0.2044 -0.1726  0.2325
    1W        W64877  21.674   6.756   0.308 -0.2937 -0.0595  0.2717
    1W        W64878  20.836   9.342   0.651  0.1514 -0.2172 -0.1140
    1W        W64879  11.765  24.381   1.982  0.1656 -0.1300  0.0453
    1W        W64880  20.476  29.045   8.339 -0.5138 -0.1448 -0.3639
    1W        W64881  20.640  10.189   9.217 -0.1210 -0.0562 -0.0622
    1W        W64882  28.579   6.937   9.058 -0.1983 -0.4149 -0.4047
    1W        W64883  16.805  25.183   7.949 -0.1197  0.1584  0.0526
    1W        W64884   5.197  18.973   2.037 -0.3598  0.3643 -0.2666
    1W        W64885  21.961  24.799   8.569 -0.3226 -0.3654 -0.1353
    1W        W64886  24.355  27.506   0.752  0.1866 -0.0341 -0.0930
    1W        W64887  16.496  29.497   8.508 -0.0919  0.1238  0.0879
    1W        W64888  29.406  26.839   0.177 -0.2118  0.0169  0.0124
    1W        W64889   2.484  23.100   7.202  0.0581  0.0511  0.0446
    1W        W64890  26.282  18.433   8.863 -0.0027 -0.3460  0.0450
    1W        W64891   3.965  28.548   6.609  0.2567 -0.1589  0.0639
    1W        W64892  21.298  10.019   1.053 -0.1340 -0.4299 -0.0318
    1W        W64893  11.431   9.099   2.587  0.1210 -0.4820 -0.1175
    1W        W64894   5.293  21.619   9.206  0.0907  0.0068  0.0396
    1W        W64895  14.358  21.755   6.572  0.1371  0.0616 -0.0223
    1W        W64896  25.128   8.850   8.345 -0.1440  0.1908  0.2396
    1W        W64897   5.258  12.757   7.195  0.2636  0.3282  0.1400
    1W        W64898  20.412  12.441   1.133  0.0489 -0.1882  0.1476
    1W        W64899  24.990   4.358   1.429 -0.1504 -0.1565 -0.2023
    1W        W64900  22.624   8.754   7.530 -0.1359  0.1797 -0.0513
    1W        W64901  15.710  14.108   2.662  0.0347  0.3963 -0.1253
    1W        W64902   7.044  19.123   0.346 -0.3665 -0.0813 -0.1468
    1W        W64903  24.782  21.674   9.114 -0.3326  0.0319  0.0081
    1W        W64904  24.832  27.875   2.795  0.0304 -0.1135 -0.1945
    1W        W64905  13.571   2.529   0.137 -0.0303  0.0509 -0.1130
    1W        W64906  17.419   6.595   6.352 -0.1073  0.0357  0.0852
    1W        W64907   5.979   0.503   0.536 -0.6185 -0.0455  0.1521
    1W        W64908  20.798  28.540   8.800 -0.4422  0.2834 -0.0630
    1W        W64909  19.503  15.595   8.574  0.0163 -0.0254 -0.4195
    1W        W64910   6.091  28.298   0.244  0.2638 -0.1297  0.2557
    1W        W64911  19.790  29.031   8.766 -0.1948  0.0965 -0.2072
    1W        W64912  10.647  10.728   1.944 -0.2499 -0.0470  0.1103
    1W        W64913   5.955  19.959   6.505 -0.2865 -0.2314  0.0885
    1W        W64914   8.479  27.676   9.036 -0.1681 -0.1305 -0.0241
    1W        W64915   7.951  28.742   7.241 -0.0131 -0.0556 -0.0108
    1W        W64916  11.702  20.627   2.506  0.2351  0.4141  0.0322
    1W        W64917  29.553   1.065   1.214 -0.1056  0.2998 -0.2001
    1W        W64918   9.287  19.152   1.378 -0.1837 -0.1945  0.1615
    1W        W64919  10.577   8.188   1.996 -0.2702  0.1820 -0.1218
    1W        W64920  14.929  11.261   0.694  0.0047  0.1685  0.0414
    1W        W64921  10.975   2.569   5.919  0.4080  0.2514  0.0105
    1W        W64922   0.461   9.289   8.972 -0.3850 -0.1924 -0.0588
    1W        W64923  20.195  27.538   8.451  0.2738 -0.1612 -0.0250
    1W        W64924   4.311  11.550   7.299  0.1455  0.4985 -0.0504
    1W        W64925  27.655  22.857   7.163  0.0271  0.3211 -0.0733
    1W        W64926  10.340  17.981   7.374  0.2888 -0.0118 -0.2640
    1W        W64927  22.581  18.555   5.407  0.2435  0.0260 -0.4348
    1W        W64928  20.862  11.979   9.155  0.1626 -0.0500 -0.0700
    1W        W64929  30.072  29.927   7.639 -0.0633  0.2898  0.2364
    1W        W64930  16.091   6.995   1.742 -0.2535  0.1338  0.2516
    1W        W64931  25.460  16.346   7.477  0.1324 -0.0062 -0.2657
    1W        W64932  17.300  12.218   7.423  0.0625 -0.2288  0.1949
    1W        W64933   8.429   5.361   2.839 -0.0508  0.1211 -0.0944
    1W        W64934  29.775  28.670   9.078  0.1209  0.3639  0.1581
    1W        W64935   7.738   3.755   8.333  0.3403  0.2174 -0.0608
    1W        W64936  26.156  18.549   1.418  0.0381  0.0873 -0.0553
    1W        W64937   6.468  14.564   7.136 -0.2367 -0.0933  0.0843
    1W        W64938  22.979   6.902   0.652  0.0104  0.1043  0.0468
    1W        W64939  17.364  19.728   0.921 -0.1161 -0.1017  0.0516
    1W        W64940  16.350  26.403   7.883  0.2167  0.4096  0.1681
    1W        W64941  12.794   6.207   7.668 -0.2175  0.0503  0.1645
    1W        W64942  30.138  17.380   6.576 -0.0927  0.1395 -0.0405
    1W        W64943  25.140  19.190   0.081 -0.0550  0.0696  0.0532
    1W        W64944  24.646  20.475   9.161  0.1247  0.2871  0.2191
    1W        W64945  23.754   7.616   2.555 -0.0361  0.3070  0.1389
    1W        W64946  16.069   8.698   0.701 -0.1067 -0.1271 -0.1061
    1W        W64947  15.515  19.357   7.851  0.0879 -0.1228 -0.2109
    1W        W64948  23.258   5.972   2.544 -0.2574 -0.2872  0.3411
    1W        W64949  25.461   1.298   2.991  0.1064 -0.0575 -0.2282
    1W        W64950   0.613  21.172   6.733  0.1002 -0.2469 -0.1869
    1W        W64951   5.805   4.430   8.630 -0.1655 -0.3185 -0.2706
    1W        W64952   0.905  10.971   9.081  0.0713 -0.1013 -0.1559
    1W        W64953  29.500  13.974   7.580  0.0550  0.0713 -0.3493
    1W        W64954  21.766  17.918   5.089 -0.0461 -0.1899  0.0341
    1W        W64955  20.445  10.707   7.382  0.1332  0.1790 -0.0993
    1W        W64956  16.887  29.635   2.636 -0.1765 -0.0325  0.1117
    1W        W64957  15.768  10.047   8.917  0.2329 -0.0779  0.2338
    1W        W64958  26.692  24.030   7.790  0.1316 -0.1773 -0.0181
    1W        W64959  21.533   8.276   2.034 -0.1962 -0.0575  0.3339
    1W        W64960   1.543  24.097   9.078  0.0586 -0.3386  0.3164
    1W        W64961   3.790   3.432   3.573  0.5304 -0.0055 -0.1016
    1W        W64962  12.340  19.558   6.359  0.2200 -0.1224  0.0302
    1W        W64963  11.354  28.138   8.237  0.0386  0.0939  0.1873
    1W        W64964  11.370   8.027   2.234  0.0820 -0.2301 -0.1137
    1W        W64965  13.850  26.234   0.380  0.0404 -0.0916  0.1115
    1W        W64966  21.641   2.305   1.404  0.0408  0.1600  0.2125
    1W        W64967  12.577  19.988   8.467  0.1983 -0.0231 -0.1744
    1W        W64968  10.708   5.085   0.631 -0.0302  0.0956 -0.0293
    1W        W64969  22.730   2.022   5.153 -0.2574 -0.3150 -0.4814
    1W        W64970  20.191  19.179   8.081  0.2632 -0.0345  0.2705
    1W        W64971  12.980  22.560   7.832 -0.2481 -0.0119  0.2627
    1W        W64972  27.228  16.520   8.614  0.0893 -0.0660  0.0946
    1W        W64973   7.286   5.412   0.996  0.2645  0.0474  0.0252
    1W        W64974  15.396  21.594   1.230 -0.3779  0.3006 -0.0389
    1W        W64975   6.139   0.332   1.505  0.1272 -0.1294 -0.1496
    1W        W64976  22.507   0.008   4.353 -0.0940 -0.0228 -0.0954
    1W        W64977   5.212   6.392   1.031 -0.2713 -0.0048 -0.0210
    1W        W64978   0.348  25.280   1.704  0.0580 -0.3902 -0.0954
    1W        W64979  17.784  14.806   2.330 -0.2622  0.1754  0.1168
    1W        W64980  24.118   5.632   7.751  0.0701 -0.1877  0.3969
    1W        W64981  29.121  12.674   7.383 -0.2274  0.0156  0.2378
    1W        W64982  20.210  28.860   8.956  0.1268 -0.1856  0.1849
    1W        W64983  15.444   5.372   1.280 -0.0353  0.1358 -0.1622
    1W        W64984  27.379   5.286   1.633  0.1072 -0.1333 -0.0638
    1W        W64985  29.602  16.187   1.161 -0.4366 -0.1483  0.1512
    1W        W64986  27.704  11.502   0.552 -0.0730 -0.1930  0.1215
    1W        W64987  20.753   1.507   7.364 -0.0343 -0.0412  0.0051
    1W        W64988   6.906  13.293   7.203 -0.0938  0.0340 -0.0574
    1W        W64989  25.096  30.097   2.565 -0.1315  0.0116  0.0059
    1W        W64990  26.622   2.134   1.187  0.0785 -0.0841 -0.1233
    1W        W64991  19.324  23.347   0.986 -0.3002 -0.0449 -0.0982
    1W        W64992  29.861  29.351   3.711 -0.1283  0.3252  0.0079
    1W        W64993   5.525  27.498   2.227 -0.1702  0.3334 -0.3372
    1W        W64994  15.674  11.752   1.018  0.1617  0.4883  0.1393
    1W        W64995  11.663   0.536   1.794 -0.3005 -0.1474 -0.1030
    1W        W64996  18.818  12.595   5.996 -0.0316  0.3353 -0.0648
    1W        W64997  25.346  19.115   6.392 -0.0498 -0.2619  0.1378
    1W        W64998  17.313   9.834   7.134  0.0371  0.0671  0.2461
    1W        W64999  20.708  27.638   3.467  0.0148 -0.0759 -0.1755
    1W        W65000   2.419  27.807   3.040  0.0948 -0.1944  0.3110
    1W        W65001  14.066   8.356   7.899 -0.1596 -0.1140 -0.4652
    1W        W65002   3.735   9.132   0.199  0.2160  0.1792  0.4681
    1W        W65003   8.008   4.682   7.730 -0.1569 -0.0642 -0.3287
    1W        W65004   8.437   8.296   7.856  0.0353 -0.0855  0.0385
    1W        W65005   7.278   9.494   8.122 -0.0411  0.1088 -0.0728
    1W        W65006  17.975   5.693   8.796 -0.1000 -0.0023 -0.0531
    1W        W65007   0.348  11.633   1.593 -0.1104  0.0300  0.4320
    1W        W65008   5.468  10.146   1.793  0.0216  0.0307 -0.0209
    1W        W65009   9.766  23.915   5.921 -0.2412 -0.1132  0.3359
    1W        W65010  22.749  16.924   7.277 -0.0777  0.0083  0.1286
    1W        W65011  20.037   5.215   9.250 -0.2283 -0.3699  0.0402
    1W        W65012  12.284  27.985   7.844 -0.1011  0.2650  0.1158
    1W        W65013  15.610  25.933   1.042  0.1868 -0.1496 -0.2665
    1W        W65014  10.047   7.357   8.505  0.1129  0.1739 -0.0114
    1W        W65015  17.710  10.828   6.947 -0.1723 -0.2630 -0.0763
    1W        W65016  12.938  21.608   0.401 -0.0208 -0.0171  0.1490
    1W        W65017   7.297  15.457   8.333 -0.0705  0.2908  0.0977
    1W        W65018  15.482   3.375   2.307  0.1173 -0.4380 -0.0367
    1W        W65019   6.376  17.196   1.998  0.2454 -0.0228 -0.1716
    1W        W65020   0.296  13.876   6.240  0.0288  0.0657  0.1601
    1W        W65021   4.261   3.367   7.370 -0.1260  0.1870 -0.0382
    1W        W65022   5.991  20.141   8.925 -0.0846  0.1109  0.2209
    1W        W65023  16.632   9.857   8.433 -0.2990 -0.1086 -0.3868
    1W        W65024   0.931  25.043   2.646 -0.0105  0.0393 -0.0423
    1W        W65025  30.333  11.470   8.062 -0.1543 -0.2708 -0.2010
    1W        W65026   7.084  10.035   7.522 -0.2552 -0.2388 -0.0487
    1W        W65027  15.958  21.543   8.318  0.0317 -0.2995 -0.0851
    1W        W65028   0.814  24.915   2.185  0.1246  0.1758 -0.0660
    1W        W65029   3.800  24.826   6.995 -0.0724 -0.0347 -0.1348
    1W        W65030   0.983  23.064   0.900 -0.2208  0.0948  0.1372
    1W        W65031   7.560   0.094   0.825  0.3761 -0.2324 -0.2322
    1W        W65032  16.104   3.716   0.020  0.0406 -0.0654  0.2299
    1W        W65033  26.137  29.140   2.524  0.1374  0.1354  0.2511
    1W        W65034  13.705   3.903   1.136  0.0097 -0.1246  0.0275
    1W        W65035  11.461  13.329   2.587 -0.1436  0.1289  0.1581
    1W        W65036  22.939   4.772   3.655 -0.2842 -0.2427 -0.2658
    1W        W65037  19.654  26.744   7.619 -0.2400 -0.2166 -0.0999
    1W        W65038  27.591  22.333   1.806 -0.2467  0.0420  0.1095
    1W        W65039   2.830  18.131   1.082 -0.1293 -0.2304 -0.0042
    1W        W65040  12.394  27.643   2.257  0.4358  0.3863  0.0508
    1W        W65041  27.093   8.832   8.103  0.4968  0.1201 -0.0145
    1W        W65042  14.353   0.384   7.230 -0.3821 -0.0012  0.1960
    1W        W65043   0.967  12.456   7.245  0.0142  0.1780  0.2012
    1W        W65044   1.891  30.030   2.222 -0.3907 -0.0500 -0.1072
    1W        W65045   3.387   8.513   8.693 -0.2442 -0.1928  0.3385
    1W        W65046   8.932   9.801   0.723 -0.0151 -0.1679  0.0138
    1W        W65047  17.892   3.182   1.235 -0.1156  0.1081 -0.0133
    1W        W65048   1.265  29.422   1.730 -0.0007  0.2654  0.2900
    1W        W65049  14.019  19.703   2.519  0.2536  0.0287 -0.3038
    1W        W65050  13.961  24.625   1.982 -0.0185  0.1495 -0.0204
    1W        W65051   3.082  20.169   9.066 -0.4213 -0.0320 -0.2151
    1W        W65052  18.384  25.845   2.100 -0.3116  0.1767  0.0457
    1W        W65053  17.027  15.882   1.663 -0.2145  0.1135 -0.0971
    1W        W65054  21.629  27.535   7.409  0.2183 -0.1734  0.1230
    1W        W65055  15.138  14.726   6.920 -0.0535  0.1308 -0.0749
    1W        W65056   3.075  27.248   7.857  0.0198  0.0013  0.2107
    1W        W65057  15.076   8.943   7.875 -0.2867 -0.2480 -0.3992
    1W        W65058  16.748  12.485   0.358  0.0831  0.2645  0.2484
    1W        W65059  24.243  10.989   6.398 -0.0553  0.2238  0.0728
    1W        W65060   5.752  14.060   7.801 -0.1074 -0.0365  0.1251
    1W        W65061  17.585  23.789   6.951  0.2777  0.1233  0.0047
    1W        W65062  21.183  14.251   0.217  0.2009 -0.2709 -0.0213
    1W        W65063  16.060  23.875   1.219  0.0259  0.0729  0.4513
    1W        W65064  25.192  24.225   7.753 -0.0811 -0.0538 -0.1195
    1W        W65065   6.643  10.489   8.711  0.0286 -0.0934 -0.1778
    1W        W65066   3.414  20.400   7.078  0.0057 -0.0190  0.0756
    1W        W65067   5.301  12.943   6.712 -0.1023  0.1932  0.0734
    1W        W65068  28.541  23.297   0.830 -0.3375 -0.2836 -0.0611
    1W        W65069  26.318  27.885   3.022 -0.2960  0.1636  0.0182
    1W        W65070  25.569  14.451   8.861 -0.2396  0.1116 -0.0847
    1W        W65071  22.434   2.444   1.476 -0.1442  0.0266  0.0165
    1W        W65072  17.274  13.318   0.153 -0.0099  0.0585 -0.1923
    1W        W65073  12.977  22.662   8.351  0.1491 -0.0626 -0.0608
    1W        W65074  27.872  17.380   0.237 -0.1519 -0.0387 -0.0486
    1W        W65075   5.767  15.275   7.017 -0.0165 -0.2162  0.0918
    1W        W65076  24.665   0.617   0.790  0.0474  0.0377 -0.1217
    1W        W65077   0.907  12.584   0.305  0.2019  0.0933 -0.0484
    1W        W65078   1.066  15.852   7.090  0.1354  0.0379 -0.1067
    1W        W65079  16.429   2.632   8.301 -0.2069 -0.0782  0.1535
    1W        W65080  18.433   8.796   1.695  0.0700 -0.3713  0.0471
    1W        W65081  19.628  13.361   2.243  0.2987  0.2800  0.0047
    1W        W65082  24.721   4.163   3.563  0.3992  0.4033  0.1361
    1W        W65083  19.334   3.847   6.592  0.0066  0.3923  0.0116
    1W        W65084   7.504  18.959   8.774 -0.3199  0.1394 -0.0827
    1W        W65085  14.526  18.018   2.326 -0.2423 -0.1278  0.0873
    1W        W65086   2.187  14.766   7.572 -0.0814 -0.0768 -0.0168
    1W        W65087  10.800   0.190   0.877 -0.1707 -0.0815  0.0734
    1W        W65088   2.943  21.998   0.113  0.1713 -0.1097  0.0323
    1W        W65089   6.359   2.414   0.917  0.1082 -0.0880  0.1775
    1W        W65090   9.357   5.874   0.518 -0.1706 -0.1920 -0.1338
    1W        W65091   8.912  12.703   2.914 -0.4298  0.0910 -0.1254
    1W        W65092  27.543  28.661   9.109 -0.3477 -0.3545 -0.1012
    1W        W65093  25.490  17.584   1.047 -0.1312  0.0185  0.1632
    1W        W65094  25.619  16.685   2.026  0.1311  0.3995 -0.0225
    1W        W65095   3.768   8.292   8.179 -0.1450 -0.3083  0.2119
    1W        W65096   0.995  17.980   0.997  0.3179 -0.1394  0.1018
    1W        W65097  26.903   3.445   8.495 -0.0714  0.0193  0.2940
    1W        W65098   0.013  21.905   0.988 -0.0250  0.2023 -0.1673
    1W        W65099   5.237  22.392   8.135 -0.0885 -0.1533  0.1828
    1W        W65100  24.316   5.462   2.080  0.2172 -0.0004  0.1514
    1W        W65101  14.410  18.481   2.262  0.1489  0.1763  0.1311
    1W        W65102  29.253  12.738   9.206  0.2419 -0.2864 -0.0867
    1W        W65103  25.384  23.381   1.507  0.1255  0.2980  0.2381
    1W        W65104  15.176  14.514   2.008 -0.1220  0.1188  0.0069
    1W        W65105  27.988  22.620   8.136  0.0193 -0.3217  0.2044
    1W        W65106  29.125   1.430   7.872 -0.1490 -0.0672  0.0940
    1W        W65107  26.648  27.214   8.910  0.1435 -0.1355 -0.2350
    1W        W65108  20.713  26.657   6.069  0.0292  0.1866 -0.1124
    1W        W65109   3.704  19.264   8.371 -0.1761  0.0774 -0.2309
    1W        W65110  29.953   6.583   2.560  0.1048 -0.1934  0.0335
    1W        W65111  16.486  21.807   0.600  0.0648  0.2202 -0.1525
    1W        W65112  13.220  29.623   7.653 -0.2949  0.1017 -0.2357
    1W        W65113  21.320  10.722   7.303 -0.1399 -0.0968 -0.1027
    1W        W65114  13.975  17.070   6.204  0.0828 -0.0926 -0.5495
    1W        W65115  16.411  23.732   2.681 -0.0451 -0.2465  0.0097
    1W        W65116  17.748  19.927   8.307 -0.2501  0.0827 -0.4507
    1W        W65117   1.216   0.943   3.683  0.0363  0.1383  0.2193
    1W        W65118  18.425   9.169   0.294 -0.0988 -0.1670 -0.0470
    1W        W65119  23.840  15.460   6.646  0.0666 -0.1377  0.0142
    1W        W65120   8.894  19.802   1.671  0.0592 -0.0282  0.1140
    1W        W65121   4.803  20.709   2.091  0.0273  0.0028  0.1910
    1W        W65122  15.792   9.435   1.853 -0.0313 -0.0550 -0.0964
    1W        W65123  21.985  22.259   8.886  0.1050  0.1354  0.2940
    1W        W65124   7.869  10.836   7.210 -0.1816  0.1874 -0.2868
    1W        W65125   0.387   4.087   1.894 -0.0630  0.1943  0.4565
    1W        W65126   3.187  27.732   7.563 -0.3343  0.0562 -0.0728
    1W        W65127  14.151   4.904   0.187  0.0805 -0.3654  0.3734
    1W        W65128  13.058  16.210   8.951  0.2122 -0.0169 -0.2378
    1W        W65129  11.501  26.905   0.040  0.1601  0.1058  0.1910
    1W        W65130   0.949  13.407   0.034  0.1165 -0.1425 -0.0035
    1W        W65131  21.349  15.694   1.292  0.3141 -0.1558 -0.0564
    1W        W65132  12.668  11.309   7.641 -0.0438  0.0430  0.3262
    1W        W65133   5.514  14.774   1.842 -0.0346 -0.2320  0.1283
    1W        W65134  23.666   2.688   7.803  0.1657 -0.4534 -0.2421
    1W        W65135  23.222  26.599   2.933 -0.4276 -0.2133 -0.1420
    1W        W65136  19.348  11.817   8.355 -0.0266 -0.2001  0.3681
    1W        W65137  11.444  11.668   3.043  0.0420  0.1478  0.0760
    1W        W65138  23.506   4.212   2.450 -0.2131  0.0126  0.0344
    1W        W65139  25.006   3.955   2.359 -0.0121  0.3945  0.3157
    1W        W65140  28.304  20.480   1.288  0.2327 -0.1389  0.2510
    1W        W65141   2.721  25.562   1.113 -0.0231  0.1016  0.1297
    1W        W65142  29.057  29.277   7.988  0.1650  0.0256  0.0902
    1W        W65143  28.948  28.835   2.315  0.1131 -0.0025  0.0726
    1W        W65144  14.494  15.920   6.970  0.1163  0.2679  0.0064
    1W        W65145  24.608  16.117   7.231 -0.0156 -0.1588 -0.3972
    1W        W65146  21.559  11.981   8.466 -0.0490 -0.0351 -0.2405
    1W        W65147  12.031  15.511   7.147 -0.1168 -0.3180  0.0335
    1W        W65148   0.413  26.707   0.049 -0.0857 -0.0757  0.1664
    1W        W65149  11.548  22.621   0.435 -0.0475  0.4449  0.0789
    1W        W65150   7.326  20.923   9.034 -0.0534  0.1098 -0.3224
    1W        W65151  27.467  14.134   7.868 -0.3035 -0.1422 -0.1598
    1W        W65152   2.680   2.928   8.181  0.0952  0.2741  0.0534
    1W        W65153  29.899  25.950   3.322 -0.1053 -0.1445 -0.2015
    1W        W65154  10.024   6.988   1.526 -0.0235  0.2317 -0.2243
    1W        W65155   2.847   0.911   6.875 -0.1528 -0.0323 -0.0051
    1W        W65156  12.814  27.121   7.012 -0.1358 -0.0240 -0.1776
    1W        W65157  29.299  12.064   1.389 -0.1472 -0.4530 -0.2215
    1W        W65158   4.785   8.520   0.385 -0.0128  0.0074  0.1837
    1W        W65159  10.898   5.763   7.233  0.0284 -0.0984 -0.0763
    1W        W65160  12.747   3.290   8.747  0.0788  0.0403  0.0873
    1W        W65161  22.791   2.917   7.161 -0.0155  0.1968 -0.3956
    1W        W65162   5.400  25.712   7.021  0.1271  0.1411  0.2897
    1W        W65163  23.358   7.537   2.870 -0.0404  0.2835  0.0324
    1W        W65164  19.370  13.495   2.636  0.0901 -0.0796  0.0552
    1W        W65165  25.525   9.910   0.274  0.0542 -0.1990 -0.1317
    1W        W65166  15.841   9.010   7.115  0.4156  0.1776  0.1560
    1W        W65167  18.458   1.907   2.576  0.4356  0.1316  0.1393
    1W        W65168  21.037  15.563   0.540 -0.0889  0.1704 -0.1324
    1W        W65169  15.284  10.023   8.428  0.2167  0.0021 -0.2496
    1W        W65170  27.106  12.835   2.348 -0.1514 -0.2132  0.0745
    1W        W65171   0.075   8.823   0.485  0.0168  0.0259  0.1923
    1W        W65172  15.372   7.135   7.974  0.3010  0.2625 -0.1150
    1W        W65173  24.712   3.832   3.088  0.2078 -0.2562  0.1451
    1W        W65174  24.302   7.284   8.413 -0.0199 -0.1592  0.1642
    1W        W65175   9.178   3.539   8.525 -0.1824 -0.1497  0.0055
    1W        W65176  13.188  17.766   0.864 -0.3801  0.1463  0.1208
    1W        W65177  13.698  11.720   7.811 -0.2227  0.0011 -0.5557
    1W        W65178  21.117  17.131   1.791  0.2902 -0.0737  0.2550
    1W        W65179  16.994   2.345   6.297  0.1825 -0.0437  0.2173
    1W        W65180  19.308  22.832   7.565 -0.3597 -0.0325  0.1636
    1W        W65181  21.578   5.876   0.675 -0.0876  0.3023  0.0083
    1W        W65182   0.066  10.366   0.293 -0.0682 -0.1321  0.2539
    1W        W65183   1.604  24.675   1.946  0.2903 -0.0853 -0.3250
    1W        W65184   4.732   5.309   2.449 -0.2254  0.3823  0.1296
    1W        W65185  22.182  24.545   8.907 -0.1629  0.0013 -0.1703
    1W        W65186  22.733   6.046   0.793  0.5077 -0.3460  0.0259
    1W        W65187   9.266   2.488   6.334  0.1272 -0.2695 -0.0717
    1W        W65188   7.778  16.446   0.544 -0.0408 -0.2267 -0.1782
    1W        W65189  10.406  23.078   7.961 -0.0283 -0.1787 -0.2901
    1W        W65190  11.768   3.496   2.814  0.1374  0.0200  0.1341
    1W        W65191   3.880  16.428   6.976 -0.0101  0.1804 -0.1043
    1W        W65192  15.125  13.870   7.213  0.0176  0.3684 -0.0858
    1W        W65193  30.189  10.497   7.624 -0.1313  0.2989 -0.3708
    1W        W65194   1.297  19.918   7.484  0.2189 -0.2811  0.0771
    1W        W65195  10.592   4.172   9.082 -0.0656 -0.0410 -0.0316
    1W        W65196  10.145  28.867   2.679 -0.1886  0.0470  0.3551
    1W        W65197   1.761  19.499   1.654 -0.1706  0.0029 -0.1597
    1W        W65198  10.434  14.289   8.149 -0.1206 -0.0830  0.0929
    1W        W65199  25.173  11.849   0.019  0.3176 -0.1397 -0.1004
    1W        W65200   0.204  24.192   6.729  0.1609 -0.0512  0.1690
    1W        W65201   8.530  12.192   7.853 -0.1617  0.1312 -0.0984
    1W        W65202  12.720  10.598   1.716 -0.1809 -0.4078 -0.0983
    1W        W65203  23.007   8.395   0.274 -0.0847 -0.2271  0.0866
    1W        W65204  10.675  19.169   7.913  0.2720 -0.1108  0.3029
    1W        W65205   1.957  11.891   1.911  0.0603  0.2032  0.0129
    1W        W65206  27.801  30.071   2.324  0.3462  0.1147 -0.0244
    1W        W65207  16.882  21.542   8.769  0.0230  0.3073 -0.0167
    1W        W65208  18.756  26.606   2.258 -0.1334 -0.0028 -0.0133
    1W        W65209  18.633  17.798   0.383  0.0762  0.0384 -0.2745
    1W        W65210  28.597   8.552   1.920  0.0396 -0.2868  0.1650
    1W        W65211   9.783   5.839   8.502  0.1368 -0.2932  0.1631
    1W        W65212   7.676  23.388   8.508 -0.1808 -0.0571  0.3073
    1W        W65213   9.961  13.484   0.166 -0.0769 -0.0921  0.0956
    1W        W65214   3.467   2.820   2.911  0.1516 -0.1821 -0.1600
    1W        W65215  29.694  15.530   8.997  0.2260 -0.0571 -0.4028
    1W        W65216  23.955  17.431   7.280 -0.3402 -0.0141  0.1024
    1W        W65217  10.371  10.188   0.256 -0.2931 -0.2992 -0.0146
    1W        W65218  25.668  30.167   7.599  0.1111  0.2771 -0.2212
    1W        W65219  18.815   1.511   1.304 -0.0428 -0.1446  0.1597
    1W        W65220  30.103   8.361   2.003  0.1755  0.1853 -0.1222
    1W        W65221  23.449   7.299   1.548  0.0685 -0.0116 -0.0634
    1W        W65222   3.583   9.072   2.409  0.1200  0.0704 -0.0538
    1W        W65223   6.105  20.286   7.992 -0.0727 -0.2204 -0.0626
    1W        W65224  16.449  11.656   3.245  0.0513 -0.1990  0.1113
    1W        W65225  24.203  14.266   0.077 -0.0232 -0.1371 -0.0259
    1W        W65226  17.943  26.608   0.018  0.0253  0.1122 -0.4941
    1W        W65227   3.489  13.322   7.454  0.1200 -0.1432  0.0601
    1W        W65228  22.868  15.751   0.700 -0.1030  0.0630  0.2146
    1W        W65229  16.523   3.166   0.803 -0.0806  0.2206 -0.2050
    1W        W65230  24.109  26.428   7.344 -0.0461  0.1751  0.0173
    1W        W65231   1.805  28.229   7.098 -0.0210 -0.4704  0.1836
    1W        W65232   7.274   5.187   1.472  0.0635  0.0300  0.0485
    1W        W65233  23.940  29.541   7.763  0.1682 -0.0358 -0.0303
    1W        W65234  13.459  24.260   9.061  0.5105  0.0445 -0.0522
    1W        W65235  21.648  19.345   0.158 -0.1810 -0.0478  0.4355
    1W        W65236  28.373   8.714   7.110  0.0600  0.1192  0.2712
    1W        W65237  26.487   2.886   3.582  0.0162  0.1589  0.1045
    1W        W65238  17.624  15.721   8.752 -0.0953  0.0217  0.1182
    1W        W65239   8.397   6.008   0.095 -0.3142 -0.1111  0.1582
    1W        W65240  21.896  19.375   6.170  0.0516  0.1299 -0.0798
    1W        W65241   4.296  16.073   8.805  0.0344 -0.2118  0.2609
    1W        W65242   1.456   5.803   0.247 -0.0938  0.0417 -0.0513
    1W        W65243   8.406  29.000   8.515  0.3011  0.1335 -0.0597
    1W        W65244   6.009   7.179   8.051 -0.1362 -0.1080 -0.1121
    1W        W65245   6.720  20.807   1.538 -0.0559  0.2413 -0.1742
    1W        W65246  30.325  30.145   2.227 -0.1174 -0.1198  0.0125
    1W        W65247   1.989   6.803   1.178 -0.1183 -0.0269  0.0760
    1W        W65248  29.353  19.449   6.712 -0.0295 -0.2177 -0.0882
    1W        W65249   6.583  18.806   9.027 -0.0845 -0.2580 -0.1621
    1W        W65250  20.840  14.880   7.194 -0.0425 -0.1149 -0.0527
    1W        W65251  25.096  10.687   0.840  0.0784 -0.0103 -0.0018
    1W        W65252   4.054  25.467   7.396 -0.0279  0.0486 -0.0925
    1W        W65253   1.759   9.751   1.636 -0.1021 -0.1726  0.0740
    1W        W65254  18.538  14.015   7.390 -0.2159  0.0598  0.1037
    1W        W65255   3.076  23.834   7.310  0.1308  0.0518  0.0251
    1W        W65256  16.405  21.567   9.020  0.4751 -0.3248 -0.1843
    1W        W65257  25.549  22.669   7.115  0.1913  0.0126  0.0039
    1W        W65258  16.071  11.722   8.311 -0.1233  0.1001  0.0226
    1W        W65259  16.788  11.608   8.987 -0.0945  0.0264 -0.1654
    1W        W65260   9.013  24.139   7.221  0.2920  0.3065 -0.1821
    1W        W65261  13.414  14.933   7.595 -0.1956  0.1661  0.2354
    1W        W65262  22.215   2.808   8.466 -0.1404  0.0209 -0.2960
    1W        W65263  28.390  22.779   9.187  0.1578  0.0867 -0.0858
    1W        W65264  11.407  27.437   0.367  0.2002  0.4221 -0.0968
    1W        W65265  20.920  10.936   7.642 -0.2853 -0.0339 -0.1171
    1W        W65266  10.947  15.068   7.414  0.1899  0.0066  0.0357
    1W        W65267  27.619   1.630   2.930 -0.2464  0.1129 -0.1621
    1W        W65268  13.249  28.882   8.228 -0.2876  0.4697 -0.1425
    1W        W65269  13.505  24.121   0.323  0.2833  0.0534 -0.1396
    1W        W65270  16.780  10.928   0.569  0.0894 -0.2641  0.1284
    1W        W65271  16.811   8.660   6.690  0.1736  0.0001  0.2119
    1W        W65272  11.257   3.304   2.018  0.0092  0.0209 -0.3526
    1W        W65273  14.661   1.119   3.076  0.1402 -0.2900  0.3699
    1W        W65274   0.420  10.743   8.268  0.0954  0.2124 -0.0313
    1W        W65275   2.343  20.730   8.844  0.3319 -0.1533  0.1587
    1W        W65276  23.766   0.438   3.165  0.0733 -0.1054  0.1280
    1W        W65277  11.235  10.639   2.774 -0.1016  0.0674  0.0702
    1W        W65278  24.405  17.235   5.782 -0.1871  0.0264 -0.0240
    1W        W65279  20.398  26.694   2.980 -0.2614  0.1927  0.1322
    1W        W65280  10.802  13.496   8.318 -0.0765 -0.0437 -0.0157
    1W        W65281  15.612  21.969   8.278  0.3283  0.3518  0.1093
    1W        W65282   2.892   2.593   2.392  0.0212  0.2314  0.3927
    1W        W65283  11.700   7.378   7.743  0.2001 -0.0798 -0.2059
    1W        W65284  19.623   7.442   1.741 -0.0274 -0.0006  0.2097
    1W        W65285  15.420  20.317   6.826  0.0755  0.3559  0.0219
    1W        W65286   6.651  12.471   2.225  0.0678  0.2121 -0.0504
    1W        W65287   0.184  11.846   7.328  0.1459 -0.1159  0.0179
    1W        W65288  13.534   0.926   1.363 -0.4395  0.0801  0.0596
    1W        W65289   0.902   0.810   7.910  0.3330 -0.1859  0.0746
    1W        W65290   4.079  10.163   1.314  0.0205 -0.0739 -0.2000
    1W        W65291   7.215  21.113   6.704 -0.1055 -0.1227  0.2500
    1W        W65292   9.637   6.252   6.902  0.3059  0.0689 -0.2448
    1W        W65293  13.442  25.430   1.832  0.1409 -0.0066 -0.1871
    1W        W65294  27.885   9.405   6.714  0.0039 -0.4991  0.0310
    1W        W65295  14.346  23.055   7.354  0.0489  0.4162  0.1039
    1W        W65296  15.230  15.707   7.228 -0.2080 -0.4451  0.0980
    1W        W65297  22.007   4.286   8.797 -0.0596 -0.2735  0.0272
    1W        W65298   9.380   7.548   1.501 -0.1031 -0.0380 -0.0612
    1W        W65299   0.073  11.923   7.805  0.4792 -0.2341 -0.1356
    1W        W65300   0.079   1.495   1.994  0.0022 -0.0687  0.0260
    1W        W65301   8.728  21.397   0.473 -0.1261 -0.4849  0.2572
    1W        W65302   9.250   9.968   1.669 -0.1339  0.1286  0.1435
    1W        W65303  25.700  16.178   6.615  0.1541 -0.1538  0.0716
    1W        W65304  13.993   1.777   0.266  0.1202  0.1561 -0.0747
    1W        W65305   0.707  16.643   9.239  0.1439 -0.0508  0.0072
    1W        W65306  30.011  13.748   7.864  0.1826 -0.0935 -0.3038
    1W        W65307  29.761  26.580   9.188 -0.2313 -0.0487  0.0375
    1W        W65308   2.507   1.496   8.971  0.2010  0.1208  0.2003
    1W        W65309   2.461   4.088   0.401  0.2691  0.3711 -0.1366
    1W        W65310  17.097  16.386   1.409 -0.3463  0.1921 -0.1148
    1W        W65311   4.599  24.300   1.369 -0.1327  0.1770  0.0122
    1W        W65312  25.322  23.236   7.248 -0.0035  0.0748  0.0712
    1W        W65313  13.885  10.630   8.642  0.1651  0.3145 -0.3123
    1W        W65314  17.440  19.410   0.304 -0.0012 -0.1266  0.0903
    1W        W65315  16.458   1.368   9.132 -0.1247 -0.0578  0.2115
    1W        W65316   4.528  14.335   0.835 -0.1190  0.1013  0.1869
    1W        W65317  13.082   8.872   8.522 -0.2055  0.0097 -0.2090
    1W        W65318  12.862  10.112   1.731 -0.0673 -0.0761  0.2906
    1W        W65319  21.794  12.656   9.246  0.1491 -0.0609 -0.3526
    1W        W65320  20.140  12.699   2.481  0.0162  0.1275  0.1421
    1W        W65321  25.831  25.122   1.885 -0.1730  0.2917 -0.2310
    1W        W65322  29.239  20.646   7.738  0.2194  0.1122 -0.2133
    1W        W65323   4.211  19.494   8.539 -0.1658 -0.1620 -0.1053
    1W        W65324   0.590   0.463   2.937  0.1109  0.0973 -0.1515
    1W        W65325  18.937  14.379   0.387  0.2189 -0.0303  0.0642
    1W        W65326   0.173  23.693   2.196  0.0257 -0.0708 -0.1698
    1W        W65327   8.758  27.232   9.145  0.2176  0.3738  0.1064
    1W        W65328  22.363   0.222   8.894  0.3323 -0.0650  0.1662
    1W        W65329  23.795  22.435   0.242  0.0253  0.0360  0.0667
    1W        W65330  20.135  14.479   8.270 -0.1093 -0.2123  0.0587
    1W        W65331   1.437  24.256   1.485  0.0304  0.2597 -0.1941
    1W        W65332  14.241  12.900   8.948 -0.2340  0.0512  0.2362
    1W        W65333  25.451   9.274   6.778 -0.2007 -0.2773 -0.0607
    1W        W65334  27.495  11.762   1.969  0.1333 -0.0314 -0.0055
    1W        W65335   5.361  10.500   8.469 -0.0158 -0.0410 -0.1304
    1W        W65336  26.597  16.454   7.701 -0.1196 -0.0889  0.1585
    1W        W65337   0.512  22.037   1.065 -0.1675  0.2319  0.1117
    1W        W65338   3.652  21.244   7.361  0.0065  0.2207  0.1683
    1W        W65339  16.803  10.187   2.081 -0.1159 -0.0444  0.3270
    1W        W65340  25.509   6.358   8.285  0.2339  0.3114 -0.1733
    1W        W65341   4.492   7.095   9.012  0.3670  0.1244  0.2275
    1W        W65342   5.511  27.081   8.309 -0.1811  0.2204 -0.0478
    1W        W65343  24.477  23.057   1.040 -0.0324  0.4899 -0.0656
    1W        W65344   4.267  14.464   1.453  0.0035 -0.1257 -0.1285
    1W        W65345  19.492  21.659   7.885  0.0473 -0.0553 -0.0217
    1W        W65346   9.036  26.675   8.211 -0.1026  0.0244 -0.2345
    1W        W65347   7.436   2.025   1.421 -0.0259  0.0670  0.2205
    1W        W65348  23.750   0.128   1.905 -0.1235  0.1985  0.2658
    1W        W65349  22.117  11.525   0.230 -0.0086  0.1343  0.1757
    1W        W65350   9.611   7.657   8.536  0.1244  0.1285 -0.1318
    1W        W65351  23.627   6.831   8.779  0.2355 -0.2489  0.0095
    1W        W65352  21.404   0.712   0.942 -0.4198 -0.0066 -0.1604
    1W        W65353  26.328  17.148   7.267 -0.0680 -0.1369 -0.1556
    1W        W65354  10.194  17.748   0.126 -0.3710 -0.2219 -0.0941
    1W        W65355   0.945  18.514   0.254 -0.0996 -0.3005 -0.0789
    1W        W65356  24.433   9.919   1.481 -0.2389  0.0142  0.2212
    1W        W65357   3.373  18.107   7.597 -0.0659  0.0185 -0.3216
    1W        W65358   3.409  13.718   7.728  0.2838 -0.1000  0.3757
    1W        W65359  11.222  24.434   2.075  0.1818 -0.1115 -0.0107
    1W        W65360  14.625  29.482   2.109  0.0689 -0.3086  0.2494
    1W        W65361   3.640   2.358   8.993  0.0095 -0.0487  0.2065
    1W        W65362  12.680  17.621   0.043 -0.0650 -0.0328  0.1349
    1W        W65363  16.967  30.240   0.444 -0.2146 -0.1107 -0.0793
    1W        W65364  11.321   5.528   0.444  0.0673  0.1013  0.1082
    1W        W65365  13.232   6.995   1.395 -0.2979 -0.4728  0.1111
    1W        W65366  28.535   2.279   8.215  0.2130  0.1615 -0.0005
    1W        W65367  24.199  17.050   8.150  0.1920  0.2460 -0.0202
    1W        W65368  13.870   5.230   9.168  0.2398  0.1962  0.1764
    1W        W65369  17.574  23.200   0.281 -0.0301 -0.0039  0.0555
    1W        W65370  14.283   3.252   6.801 -0.1140  0.1176 -0.1181
    1W        W65371  19.281   0.897   2.596  0.3901  0.1720  0.3183
    1W        W65372  12.544  12.824   0.317  0.1737 -0.1645 -0.0531
    1W        W65373  14.993  20.837   0.526  0.4108  0.1775  0.0222
    1W        W65374   3.149  30.213   7.612 -0.1193 -0.0222  0.1627
    1W        W65375  14.193  12.255   1.517  0.3625 -0.0855 -0.0740
    1W        W65376  11.632  26.988   7.050 -0.1121  0.3124 -0.1416
    1W        W65377  11.545   8.560   7.752 -0.2302  0.1753 -0.1685
    1W        W65378  25.994  18.745   0.488  0.0620 -0.1612  0.0069
    1W        W65379  26.475  11.812   0.766  0.2927  0.0322  0.0345
    1W        W65380  16.358  18.212   5.786  0.0759 -0.0476  0.0962
    1W        W65381  18.674  24.660   1.467  0.0160  0.1319  0.2142
    1W        W65382  12.861  29.818   8.825  0.2224  0.1672 -0.1893
    1W        W65383   2.224   9.642   1.584  0.1093 -0.1804 -0.3015
    1W        W65384  10.696  24.559   7.079  0.0929  0.3598  0.3225
    1W        W65385   8.855  28.138   9.078 -0.0734  0.2797 -0.0895
    1W        W65386  17.249   1.902   6.057 -0.1465  0.0337 -0.5907
    1W        W65387  19.968  15.751   1.959 -0.0379  0.1425  0.0808
    1W        W65388  22.660  21.523   8.583  0.0687 -0.4772 -0.2892
    1W        W65389   6.027  18.089   0.218 -0.1486 -0.1580  0.2166
    1W        W65390  13.173  14.704   8.906 -0.0722  0.2869  0.3376
    1W        W65391  12.785  14.667   1.334 -0.0390 -0.1087 -0.0272
    1W        W65392  22.252  14.022   5.828  0.3105  0.2573  0.0899
    1W        W65393  23.825  14.950   6.694 -0.0697 -0.2278 -0.1262
    1W        W65394  15.136   0.173   6.263  0.0204 -0.3421 -0.2669
    1W        W65395  14.955  25.558   6.426 -0.0224  0.0807  0.2072
    1W        W65396  27.593  21.767   7.104 -0.0793 -0.0867  0.1213
    1W        W65397  22.115  14.723   0.605  0.1741  0.0788  0.2983
    1W        W65398  12.925  20.733   0.290  0.2103  0.4809 -0.2993
    1W        W65399   7.939  23.253   6.572 -0.2411  0.0822 -0.1887
    1W        W65400   9.847   7.588   2.256  0.3888 -0.0662  0.0601
    1W        W65401  21.435  16.852   0.592  0.1833 -0.1304  0.2995
    1W        W65402  11.240  26.493   0.864  0.0083 -0.1333 -0.1078
    1W        W65403  25.580  20.295   1.935  0.0152 -0.1421  0.2472
    1W        W65404  18.209  29.300   6.917  0.0497  0.1353 -0.0559
    1W        W65405   8.504   1.495   6.769 -0.3736  0.3189 -0.0529
    1W        W65406  18.760  21.371   8.121 -0.1101 -0.1182  0.0748
    1W        W65407   0.268  26.665   7.610  0.2345 -0.3870  0.0234
    1W        W65408   3.265  12.419   7.145 -0.0602 -0.1326 -0.2357
    1W        W65409  30.099   6.812   0.835  0.0022  0.0145  0.2956
    1W        W65410   4.277   1.087   1.924 -0.0642  0.0564 -0.1466
    1W        W65411   5.667   1.995   0.907  0.1690 -0.2254 -0.0156
    1W        W65412   6.141   5.300   2.388  0.1390  0.1206 -0.0505
    1W        W65413   9.481   5.514   1.840 -0.0203 -0.0993 -0.0049
    1W        W65414  22.079  11.452   2.094  0.1436 -0.4226  0.1157
    1W        W65415  20.355   6.626   0.497 -0.0265  0.1064 -0.2734
    1W        W65416  18.825  12.938   2.702  0.1882  0.2521 -0.0262
    1W        W65417  16.876  14.834   7.478  0.0300 -0.0193 -0.0125
    1W        W65418   1.659  24.872   8.995  0.0499 -0.0812 -0.0600
    1W        W65419  29.263  17.412   8.438 -0.0079 -0.4090  0.2013
    1W        W65420  14.659  15.868   8.130  0.1931 -0.1473 -0.1152
    1W        W65421  12.676  13.082   2.089  0.0983 -0.0685  0.4719
    1W        W65422   0.772  22.332   1.580 -0.0625  0.1793  0.2528
    1W        W65423  24.558  16.837   6.920  0.0082  0.3404  0.3455
    1W        W65424  26.911  12.395   0.072  0.2866  0.2532 -0.3378
    1W        W65425   9.422  13.464   8.155 -0.0988  0.1189  0.1879
    1W        W65426  24.388  13.653   0.924 -0.1481  0.1724  0.3549
    1W        W65427   9.359   1.850   1.713 -0.1934 -0.0001  0.3054
    1W        W65428   9.056   9.014   8.936 -0.2601 -0.1320  0.1404
    1W        W65429  17.443  22.840   1.967  0.1596 -0.2675  0.2202
    1W        W65430  11.175   0.698   1.883  0.2540 -0.0813 -0.0234
    1W        W65431   5.099  14.819   1.101 -0.0922 -0.1386 -0.2396
    1W        W65432   1.080  27.124   3.275 -0.0074 -0.0787 -0.0726
    1W        W65433   7.781  11.710   7.042  0.0983 -0.0043  0.1910
    1W        W65434  15.880  26.012   2.012 -0.3426  0.0665  0.0717
    1W        W65435  13.878  20.541   7.020 -0.1208 -0.1124  0.0944
    1W        W65436   5.122  20.332   7.085 -0.0215  0.0913 -0.1025
    1W        W65437  18.896  13.571   0.022  0.1808  0.1566  0.3217
    1W        W65438  22.957  24.529   8.361 -0.1528 -0.0306 -0.0376
    1W        W65439  17.594  12.548   7.023  0.3015  0.0174  0.1144
    1W        W65440  12.888   8.856   7.594  0.0099  0.0644 -0.4773
    1W        W65441  22.030   4.264   2.424 -0.1142 -0.3959 -0.4037
    1W        W65442  17.612  29.526   7.408 -0.5746 -0.0814  0.0925
    1W        W65443   0.532   9.415   7.832 -0.1241 -0.1029  0.1105
    1W        W65444  27.100  27.391   0.167  0.1505 -0.3200 -0.0576
    1W        W65445  12.270   6.896   1.196  0.0307  0.0608  0.4612
    1W        W65446   3.146  19.646   6.851  0.2809 -0.2633 -0.0106
    1W        W65447   5.258  28.334   8.670 -0.0487  0.0709 -0.1949
    1W        W65448   8.948   2.516   7.487 -0.0052  0.1228  0.0670
    1W        W65449   1.138  27.258   0.855 -0.2200 -0.2099 -0.0973
    1W        W65450  19.484  15.099   2.785  0.0451 -0.2875  0.1799
    1W        W65451   7.192  10.501   7.474 -0.2579  0.0769  0.0727
    1W        W65452  23.093  25.882   6.490  0.0794  0.0317 -0.1413
    1W        W65453  19.555  22.967   1.225 -0.2829  0.2017  0.0912
    1W        W65454  22.852  18.175   0.979 -0.1161 -0.3669 -0.0239
    1W        W65455   0.485   4.199   0.225 -0.1782  0.1490  0.0408
    1W        W65456  29.797  13.363   7.157 -0.0822  0.0918  0.4790
    1W        W65457  29.985  15.869   0.966 -0.1218  0.1453 -0.3743
    1W        W65458   0.527  29.495   9.055 -0.2282  0.0686  0.0001
    1W        W65459  14.876  21.850   1.254 -0.0111  0.0273 -0.0795
    1W        W65460   3.786  10.733   8.314 -0.0648 -0.0825 -0.1067
    1W        W65461  27.964  25.694   0.962 -0.1721  0.0826  0.1400
    1W        W65462  11.842  18.960   6.086  0.3087 -0.1255  0.0232
    1W        W65463   7.221   4.002   2.100  0.2107 -0.1717 -0.1420
    1W        W65464  21.491  30.107   9.045 -0.0476  0.1884 -0.1338
    1W        W65465  19.426   4.981   7.822  0.0866 -0.2060  0.0836
    1W        W65466   4.838  23.926   1.571  0.0272  0.2881  0.0806
    1W        W65467   0.842  14.600   1.402  0.1186 -0.0422 -0.1417
    1W        W65468  26.108   1.109   8.586 -0.2003  0.0991  0.2450
    1W        W65469   3.931   9.721   1.276 -0.3551  0.0232 -0.0112
    1W        W65470   5.732  29.923   2.921  0.2343 -0.0668 -0.0290
    1W        W65471   3.977   7.399   7.493 -0.2859 -0.1351 -0.0215
    1W        W65472   4.847   9.776   7.925  0.2452 -0.1388  0.0413
    1W        W65473  21.523  18.566   7.927 -0.4381  0.0679  0.2768
    1W        W65474  25.011  24.505   0.460  0.0966  0.1147  0.1526
    1W        W65475  16.088  15.781   1.425  0.2052  0.2249 -0.0224
    1W        W65476  19.106  15.098   7.192 -0.1415 -0.2236 -0.0431
    1W        W65477  23.572  12.774   1.701  0.2270  0.0273 -0.1688
    1W        W65478   0.580  26.105   6.965  0.3192  0.1217 -0.0388
    1W        W65479  14.080  19.484   7.059 -0.1264  0.0731  0.0196
    1W        W65480  30.134  23.806   7.486 -0.1121  0.0793  0.1247
    1W        W65481   1.451  27.552   7.684 -0.1399 -0.1055  0.4742
    1W        W65482   1.520   1.198   1.619  0.2206 -0.0909  0.0941
    1W        W65483  19.608  17.449   6.951 -0.3030  0.2544  0.3703
    1W        W65484   7.080   7.516   7.074 -0.0813 -0.1035 -0.0981
    1W        W65485   2.766   0.312   3.565  0.0337  0.0996 -0.3206
    1W        W65486  13.389   4.335   6.948 -0.0050 -0.1823  0.0408
    1W        W65487  21.092  19.348   5.524 -0.2001 -0.1004 -0.1158
    1W        W65488  12.007   1.728   6.438 -0.1320 -0.2390  0.0830
    1W        W65489  14.462  18.564   7.573 -0.1767  0.2335 -0.1039
    1W        W65490   2.109  17.148   9.181 -0.0001  0.1157 -0.2636
    1W        W65491  12.954  19.703   7.471 -0.0195 -0.3377  0.0866
    1W        W65492  18.087  16.424   7.456 -0.0341 -0.1097 -0.0782
    1W        W65493  24.932   2.143   0.515  0.0886 -0.2018  0.0480
    1W        W65494   4.109   4.170   1.251  0.2760  0.1851  0.0795
    1W        W65495  15.625  10.921   8.961 -0.0647 -0.1912 -0.1956
    1W        W65496  25.838  16.674   0.923 -0.0312 -0.0905  0.0569
    1W        W65497  11.405  15.258   8.192 -0.0311 -0.1760  0.1478
    1W        W65498  25.641  12.272   2.046 -0.1856 -0.0769  0.3142
    1W        W65499  24.981  17.645   1.216 -0.4281  0.1175  0.0138
    1W        W65500  19.014   2.824   8.918 -0.1509  0.1513  0.1820
    1W        W65501  10.180  28.884   9.247 -0.1114 -0.3908 -0.1169
    1W        W65502  24.925   8.115   0.510  0.1592 -0.2255 -0.6683
    1W        W65503  17.267  18.636   2.226  0.0676 -0.3040 -0.0484
    1W        W65504   7.895  20.379   9.235 -0.0429 -0.1920  0.0446
    1W        W65505  22.567   5.546   6.804  0.0398  0.0928 -0.1194
    1W        W65506  24.624  25.540   0.986 -0.0089 -0.2383  0.0257
    1W        W65507  25.209  20.022   7.044 -0.2598 -0.0055  0.3651
    1W        W65508  16.054  23.742   2.124 -0.0836  0.2225  0.2631
    1W        W65509   7.483  18.821   6.466  0.4287 -0.1192  0.3236
    1W        W65510  10.787  11.670   7.763 -0.0461 -0.0950 -0.1711
    1W        W65511  14.531  24.390   2.863  0.0372  0.4103  0.1395
    1W        W65512  22.345   0.726   3.028 -0.1963 -0.0761  0.0030
    1W        W65513   8.566   4.602   6.783  0.3261 -0.3232  0.2111
    1W        W65514   0.969   8.197   6.797  0.0515  0.1421  0.0572
    1W        W65515  14.914  17.787   7.339 -0.2176 -0.1037  0.1648
    1W        W65516  27.176  11.563   8.964  0.0931 -0.1253  0.1563
    1W        W65517  19.686  30.085   8.468  0.1094 -0.0118 -0.1477
    1W        W65518  22.004  30.005   8.874 -0.0860 -0.2258  0.1642
    1W        W65519  16.865  29.872   2.118 -0.2550 -0.0267  0.0921
    1W        W65520  18.113  23.140   8.964 -0.0074 -0.1488  0.0197
    1W        W65521  19.749  16.654   9.009 -0.0359  0.0945  0.0948
    1W        W65522   9.073  18.350   2.531  0.1980  0.1656  0.0455
    1W        W65523  16.542   4.017   1.266 -0.1187  0.0128  0.2207
    1W        W65524   1.253   8.954   2.091 -0.3692 -0.1273 -0.0192
    1W        W65525  28.753  26.392   2.408 -0.3708 -0.0662 -0.4077
    1W        W65526  27.675  11.909   8.207  0.1262 -0.2739 -0.1077
    1W        W65527   0.247  18.651   6.673  0.2332 -0.0717  0.0054
    1W        W65528  19.680   8.013   0.926  0.1294  0.1729 -0.0917
    1W        W65529  28.015   7.756   2.142 -0.1229  0.3117  0.0676
    1W        W65530  22.526   1.248   8.755  0.1457  0.0409 -0.0604
    1W        W65531  14.900  24.955   1.377 -0.0455  0.3440  0.3011
    1W        W65532  23.757  14.240   9.072  0.0701  0.3145  0.0426
    1W        W65533   4.544   9.005   6.223 -0.0730  0.1235 -0.2643
    1W        W65534  15.445  25.583   1.801 -0.2565 -0.2286 -0.0439
    1W        W65535  29.500  13.401   0.948 -0.1717 -0.0702  0.1180
    1W        W65536   0.630  11.522   2.020 -0.2034 -0.1637 -0.1194
    1W        W65537   8.168  11.264   0.155  0.5089 -0.2551 -0.1806
    1W        W65538   6.105   0.947   1.151 -0.2428  0.1033  0.1543
    1W        W65539  29.562  14.857   0.112  0.0663 -0.0171  0.0554
    1W        W65540   1.252  22.124   2.070 -0.0612 -0.1445  0.3796
    1W        W65541   7.695  29.174   8.581 -0.1058  0.0475 -0.1863
    1W        W65542  10.792  20.204   6.251  0.1020 -0.1862  0.0598
    1W        W65543  24.987  27.119   6.425 -0.1771 -0.1394  0.3967
    1W        W65544  10.636  15.073   7.766 -0.1481  0.1389  0.0901
    1W        W65545  18.496  21.758   1.080 -0.0663 -0.0351  0.1505
    1W        W65546  21.643  12.217   8.002  0.0380  0.0306  0.0167
    1W        W65547  24.432  13.572   6.247  0.1641 -0.2123  0.0967
    1W        W65548  17.046   1.987   0.515 -0.1334 -0.0720  0.0103
    1W        W65549  13.863   5.028   2.147  0.4345  0.1397  0.1249
    1W        W65550  27.617  21.628   8.982  0.0732 -0.0951 -0.1012
    1W        W65551  10.621  26.582   7.928 -0.1072  0.2074 -0.3240
    1W        W65552  15.062  25.443   1.436  0.1310  0.1581 -0.0240
    1W        W65553  24.385  19.477   7.378  0.0841  0.1212 -0.0054
    1W        W65554   3.383  29.912   3.670  0.0646 -0.2184  0.0926
    1W        W65555   1.022  10.666   6.903  0.1535 -0.2140  0.1323
    1W        W65556   9.886  29.934   2.349 -0.0698  0.3451 -0.1414
    1W        W65557  15.725  29.401   0.577 -0.2519 -0.1964 -0.0672
    1W        W65558  10.541  25.116   2.923  0.0724  0.2968  0.4688
    1W        W65559  14.039   7.243   0.259  0.2057 -0.1686  0.0928
    1W        W65560  27.391  18.399   0.133 -0.1555 -0.0420  0.1485
    1W        W65561  21.825  22.758   0.059 -0.0350 -0.3195  0.3116
    1W        W65562  10.408   8.353   1.236  0.2360 -0.1381  0.1566
    1W        W65563  15.291   5.747   0.395  0.0089 -0.0206  0.3289
    1W        W65564  10.375  20.023   1.461 -0.0784  0.1905  0.1978
    1W        W65565   9.755  19.350   1.610  0.1697  0.1975 -0.2417
    1W        W65566   7.580  23.378   1.521  0.0988 -0.2221  0.2545
    1W        W65567  13.375  10.875   3.809 -0.1413 -0.1029 -0.1276
    1W        W65568  21.100   5.664   0.979  0.1437 -0.0307  0.1098
    1W        W65569  28.330  15.601   0.799 -0.0508  0.1003  0.0409
    1W        W65570  19.313  18.136   8.386  0.2358  0.0279 -0.0334
    1W        W65571   4.557  16.264   0.645  0.1154  0.2248 -0.0859
    1W        W65572  10.197  25.208   8.090  0.0135 -0.3772 -0.0160
    1W        W65573   8.038  15.273   7.283 -0.2967  0.2461 -0.0202
    1W        W65574  14.627  11.639   7.914  0.2307 -0.1932 -0.0060
    1W        W65575  24.541   5.063   7.201  0.0298  0.0544  0.0108
    1W        W65576  29.622  11.696   7.355 -0.0367  0.0341  0.1197
    1W        W65577   9.150   2.942   7.516 -0.3410  0.0581 -0.3719
    1W        W65578  27.317  29.850   1.248  0.2556 -0.1140 -0.1753
    1W        W65579   7.318   9.641   8.780 -0.2561  0.0720 -0.0373
    1W        W65580  17.927  19.476   7.075 -0.0552  0.1542  0.0781
    1W        W65581  11.564  29.545   1.655 -0.1164 -0.0009  0.0975
    1W        W65582   1.522  21.905   7.198 -0.0505 -0.1324 -0.0368
    1W        W65583   5.551   4.573   7.817  0.2584  0.2374 -0.0875
    1W        W65584   8.925   2.935   0.451 -0.1952  0.2644 -0.1388
    1W        W65585  14.233  24.201   0.399 -0.2147 -0.3428  0.0588
    1W        W65586   6.548   6.625   2.516  0.1957  0.1019  0.1027
    1W        W65587  11.777  18.387   9.160 -0.5154 -0.2101 -0.0525
    1W        W65588  11.587  29.286   2.916 -0.2447  0.0371  0.1677
    1W        W65589   7.013   4.330   7.791  0.0702 -0.2093 -0.0463
    1W        W65590  16.172  19.792   9.252  0.2990 -0.0023  0.4502
    1W        W65591  25.971  16.698   8.105 -0.1815  0.1929  0.0191
    1W        W65592   7.381  18.804   6.906  0.0513  0.1349 -0.0192
    1W        W65593  11.543  26.561   0.432  0.1888 -0.1153  0.2939
    1W        W65594  13.918  12.322   0.888 -0.2831 -0.0507  0.1467
    1W        W65595   0.757  21.787   7.909 -0.0088  0.1467 -0.2309
    1W        W65596   0.286  19.043   8.191 -0.2184  0.1344 -0.2156
    1W        W65597  21.110  13.967   1.135 -0.0923  0.0139  0.2063
    1W        W65598   0.972  28.816   6.871 -0.0314  0.0150  0.1317
    1W        W65599  30.209  10.738   8.705  0.1016  0.0318  0.1993
    1W        W65600   7.192   2.479   1.352  0.0820 -0.1245 -0.1570
    1W        W65601   5.480  21.585   6.283  0.0678  0.1377  0.1707
    1W        W65602  29.272  27.019   7.219 -0.1299  0.0636  0.0107
    1W        W65603  23.589  15.735   1.376  0.2030 -0.1354  0.0182
    1W        W65604  13.238  20.956   6.346 -0.4354  0.0454 -0.0546
    1W        W65605  12.018   8.923   6.591  0.1682  0.1691  0.4747
    1W        W65606  12.052   9.272   0.907  0.2896  0.4186  0.0970
    1W        W65607  20.269  14.426   2.341  0.3645  0.0794 -0.2982
    1W        W65608  27.009   9.892   7.699 -0.2517 -0.0184  0.1675
    1W        W65609  17.565  27.581   2.800 -0.1368  0.0057  0.2988
    1W        W65610  21.207  14.915   8.349  0.1005 -0.2098  0.0085
    1W        W65611  15.181  17.936   1.785  0.2669 -0.3152 -0.1612
    1W        W65612  25.809   7.878   6.491  0.1603  0.1497  0.1603
    1W        W65613   9.669  24.440   6.862  0.1988 -0.0088 -0.0525
    1W        W65614   8.169  21.903   1.403 -0.3048  0.1361  0.0148
    1W        W65615  13.139  16.060   1.954 -0.3710  0.0453  0.1011
    1W        W65616   9.683  16.197   2.880  0.0251  0.2006 -0.1851
    1W        W65617  25.501   1.504   2.493 -0.1279  0.0281 -0.0105
    1W        W65618  19.985  11.986   0.466  0.1088  0.0890 -0.3219
    1W        W65619   3.876   0.545   3.075  0.0364 -0.0172  0.2304
    1W        W65620   3.081  16.767   0.430  0.3328 -0.5138 -0.1737
    1W        W65621  10.148  10.565   0.647  0.2375  0.0340  0.4328
    1W        W65622  15.080  28.593   8.901 -0.1829 -0.0518  0.2736
    1W        W65623  22.450   7.177   6.452  0.2535  0.2391 -0.0812
    1W        W65624   1.943  20.336   8.004  0.0094  0.1737  0.2023
    1W        W65625   0.124  10.258   1.809  0.2372  0.1508  0.2180
    1W        W65626   0.016  12.332   7.362  0.0586  0.1002 -0.3180
    1W        W65627   9.346   0.659   7.420  0.1235  0.0465 -0.1076
    1W        W65628  21.204  30.207   7.616 -0.0229 -0.1447  0.0706
    1W        W65629  14.531  11.882   2.947  0.0065 -0.1412  0.0407
    1W        W65630  15.390   6.629   8.681 -0.2085  0.0573 -0.1845
    1W        W65631  17.201  13.608   0.707  0.1619 -0.2394  0.0309
    1W        W65632  13.739  21.706   1.434 -0.0183  0.1677 -0.2686
    1W        W65633  25.551  11.566   5.695 -0.2661  0.0790  0.1157
    1W        W65634  11.070  27.930   0.455  0.0836 -0.2711 -0.0722
    1W        W65635  13.881  16.592   1.497 -0.0741 -0.1584 -0.0500
    1W        W65636  28.829  20.201   6.077 -0.1479 -0.0336  0.1199
    1W        W65637   9.869  28.718   1.842  0.1415 -0.0692 -0.0381
    1W        W65638  25.373  29.208   2.957 -0.0125  0.1993  0.1459
    1W        W65639   9.864  16.433   6.489 -0.0789 -0.3674  0.1217
    1W        W65640  23.349  19.280   1.468  0.2066 -0.1397  0.0012
    1W        W65641   0.712   3.837   2.193  0.0573  0.3290 -0.0706
    1W        W65642  25.008  29.844   3.051  0.2455  0.0281  0.1902
    1W        W65643  15.889   0.676   1.204  0.1232  0.2132  0.1983
    1W        W65644  29.374  29.417   1.239  0.1821  0.1252 -0.0846
    1W        W65645  29.024   7.184   0.051  0.2539  0.1180  0.0267
    1W        W65646  29.629  19.214   1.447 -0.0391  0.3063 -0.0364
    1W        W65647   0.612  13.874   7.738  0.0188  0.1406  0.1304
    1W        W65648   6.121  14.054   9.098 -0.0754  0.1460 -0.1113
    1W        W65649  14.463  10.983   2.125  0.0762  0.4939 -0.3185
    1W        W65650  15.521  15.622   8.873 -0.0617  0.0852  0.1648
    1W        W65651  28.892  18.932   7.000  0.2979 -0.1559  0.2690
    1W        W65652  26.662  15.146   0.501  0.0959  0.0543  0.1726
    1W        W65653   4.399  19.145   5.718 -0.1229 -0.1865 -0.1928
    1W        W65654  10.437  15.078   2.249  0.1188  0.2284  0.0516
    1W        W65655  13.851  25.341   6.422 -0.1882  0.1587 -0.0349
    1W        W65656  23.908  13.736   6.320  0.0241  0.0068 -0.1566
    1W        W65657  24.531  24.235   0.627  0.0281  0.1717  0.2737
    1W        W65658  17.033  12.929   0.655 -0.0483 -0.3260 -0.3051
    1W        W65659   0.990  26.494   2.371  0.1279 -0.2543  0.1161
    1W        W65660  13.946  16.617   0.479  0.0543 -0.3516  0.1824
    1W        W65661  26.137  10.525   1.246 -0.1328 -0.2603 -0.5034
    1W        W65662  11.116  18.219   1.541 -0.1900 -0.0596  0.0584
    1W        W65663  10.525  26.633   1.715  0.1135 -0.3905 -0.1617
    1W        W65664   4.165  27.011   8.000 -0.0667 -0.1851 -0.0786
    1W        W65665  19.942  24.313   1.845  0.1167  0.1262  0.1607
    1W        W65666  22.120  20.295   8.632  0.1257 -0.0921 -0.1032
    1W        W65667   3.081  28.229   7.677 -0.1295 -0.4216  0.0341
    1W        W65668  20.797  28.317   7.801 -0.2252  0.3968  0.0275
    1W        W65669   6.547  28.736   1.918 -0.0578 -0.0830 -0.1184
    1W        W65670  19.912  20.496   0.823  0.1003  0.0661  0.1298
    1W        W65671   0.577  21.727   8.570 -0.0828 -0.0098 -0.0694
    1W        W65672   8.023  13.366   7.935 -0.2168  0.0441 -0.0144
    1W        W65673   3.575  20.272   6.616  0.2940 -0.1624 -0.1668
    1W        W65674  26.616  11.934   6.749 -0.0598 -0.0461 -0.2413
    1W        W65675  20.991  24.554   1.213  0.0505 -0.0036  0.0078
    1W        W65676  20.380  18.438   6.497  0.0037 -0.0451  0.2001
    1W        W65677  13.328   7.280   0.971 -0.0484 -0.2853  0.2664
    1W        W65678  12.636  13.415   7.965 -0.2222 -0.2306 -0.3928
    1W        W65679   0.454  20.001   7.004  0.0974 -0.1698 -0.2531
    1W        W65680   8.920  15.342   8.308 -0.1838 -0.1037 -0.0390
    1W        W65681   9.780  16.962   0.038  0.1161  0.1323  0.2388
    1W        W65682  29.190   7.207   2.491 -0.0628  0.4516 -0.0991
    1W        W65683  16.004  12.762   1.912 -0.1486  0.4605 -0.2445
    1W        W65684   1.784   1.748   0.361 -0.0226 -0.1047  0.2810
    1W        W65685  20.065  24.470   5.474  0.2375 -0.1393 -0.0300
    1W        W65686   3.632  29.280   1.111 -0.3906  0.1515 -0.0168
    1W        W65687  23.717  17.802   2.059 -0.3991  0.0918  0.1041
    1W        W65688   5.407  14.032   2.361  0.0934 -0.0173 -0.2747
    1W        W65689   4.833  30.118   0.755  0.2106 -0.0057 -0.1972
    1W        W65690   3.043   4.659   2.640 -0.0108 -0.1513  0.0871
    1W        W65691  15.670   0.863   0.755 -0.0343  0.2690  0.0059
    1W        W65692  12.831  13.945   7.620 -0.4424  0.0902 -0.0931
    1W        W65693  12.813  26.679   8.074  0.2056 -0.4220  0.2308
    1W        W65694  23.093  10.422   1.142  0.1380 -0.1832 -0.1425
    1W        W65695   9.624   0.408   0.102  0.3458 -0.0222  0.2303
    1W        W65696   6.526   4.557   2.109  0.3208  0.0769  0.1890
    1W        W65697  20.408  11.916   0.050 -0.0387 -0.0932  0.3148
    1W        W65698   7.764  14.882   9.037  0.1098  0.1845  0.0953
    1W        W65699  12.049  16.928   8.829  0.1208  0.0748  0.0830
    1W        W65700  13.520  26.152   9.255  0.0983  0.3663 -0.1910
    1W        W65701   1.837   1.390   0.891 -0.0914  0.0714 -0.1191
    1W        W65702  23.129  29.113   7.989  0.0493 -0.0334  0.0509
    1W        W65703   3.791   0.916   9.184  0.1673  0.4698  0.0894
    1W        W65704  23.843  17.517   1.597  0.1312 -0.1896  0.0581
    1W        W65705   3.260  10.161   7.080  0.0360  0.1225  0.0526
    1W        W65706  19.955  14.813   0.767 -0.3535  0.0272 -0.2310
    1W        W65707   2.085  20.634   7.607 -0.1020  0.0152 -0.0183
    1W        W65708  28.047  18.762   6.368 -0.2661  0.1193  0.2871
    1W        W65709  14.311  23.062   5.954  0.0526 -0.1170 -0.0263
    1W        W65710  12.938   8.222   9.236 -0.2258  0.0228 -0.0723
    1W        W65711  16.753  26.404   2.529  0.0214  0.1431 -0.0857
    1W        W65712   8.903  13.830   6.858  0.1800 -0.3134 -0.0565
    1W        W65713  10.849  19.243   0.132 -0.0603 -0.3445 -0.2179
    1W        W65714  17.781  18.198   2.936 -0.0415  0.2348  0.1531
    1W        W65715  18.042  25.068   5.706 -0.1602  0.1797  0.3187
    1W        W65716  26.554  25.686   2.404  0.1592  0.4449  0.0570
    1W        W65717  28.476  27.595   2.621  0.0448 -0.0936 -0.0953
    1W        W65718   5.757  15.078   8.854 -0.1284  0.0406  0.2234
    1W        W65719  20.259  18.292   6.949  0.1559  0.1342  0.0803
    1W        W65720   1.896  27.748   8.216  0.3076  0.0816 -0.1161
    1W        W65721   9.137  15.967   7.251  0.2348 -0.0514 -0.0658
    1W        W65722   4.392  12.350   8.674  0.1185  0.0244 -0.2487
    1W        W65723  15.659  22.802   2.045 -0.2220  0.1072  0.2529
    1W        W65724  18.938   8.281   0.607 -0.0047  0.0639  0.1571
    1W        W65725  22.898  23.512   6.734 -0.1831 -0.2773  0.0359
    1W        W65726  18.248   0.808   8.761 -0.3193 -0.0281  0.0529
    1W        W65727   8.663  26.731   8.910 -0.0507 -0.4147 -0.1514
    1W        W65728  20.535   9.779   0.500  0.0982 -0.0018 -0.2737
    1W        W65729   9.457   0.738   2.443 -0.0888  0.0017  0.0693
    1W        W65730   3.646  27.803   8.856 -0.0672 -0.0175  0.1706
    1W        W65731   5.728  14.249   6.974 -0.1615  0.1433  0.0821
    1W        W65732  22.495   1.387   8.022 -0.1856 -0.1156 -0.0701
    1W        W65733  18.612  11.589   8.593  0.1888  0.1827 -0.0462
    1W        W65734   9.089   5.129   7.755 -0.1808 -0.1528  0.1017
    1W        W65735  12.652   6.665   6.622  0.1644 -0.1425  0.1281
    1W        W65736  14.922  16.696   8.175 -0.1010  0.5250 -0.0581
    1W        W65737  27.409  13.770   7.507 -0.4499  0.3916 -0.1502
    1W        W65738  15.599  11.919   8.113 -0.0731  0.1841 -0.0669
    1W        W65739  25.646   6.967   0.048 -0.0059 -0.0381  0.0586
    1W        W65740  25.127   0.045   2.155 -0.0336 -0.0206 -0.2025
    1W        W65741   0.239   3.097   3.429 -0.0831  0.3690  0.2207
    1W        W65742  28.171  15.408   6.787  0.1446 -0.1620 -0.0179
    1W        W65743  30.186  27.110   8.465 -0.0275 -0.2065 -0.4227
    1W        W65744  23.674  23.273   7.483 -0.0045 -0.1132 -0.0701
    1W        W65745  20.250  21.636   9.194 -0.1361  0.2772 -0.2462
    1W        W65746  20.972  25.253   8.672  0.0801 -0.1239 -0.0153
    1W        W65747  10.483  13.332   0.262  0.1713  0.0750  0.3572
    1W        W65748  24.115  12.318   0.949 -0.0487 -0.0195  0.1503
    1W        W65749   5.474  15.854   9.115  0.2401 -0.0954  0.0255
    1W        W65750   3.390   1.076   1.941  0.1625  0.1933  0.1465
    1W        W65751  12.232  10.552   2.567 -0.4352 -0.1721  0.0786
    1W        W65752  11.157  22.681   1.909 -0.0086 -0.1236 -0.0251
    1W        W65753   1.826  20.406   8.466 -0.0520  0.1600 -0.2572
    1W        W65754   8.293  29.455   1.562  0.3003 -0.0583  0.0482
    1W        W65755   7.206   2.415   6.940 -0.3283 -0.0501  0.2511
    1W        W65756  24.230   9.109   0.648  0.0162  0.0642  0.1476
    1W        W65757  25.159   6.306   7.911  0.0840 -0.1915 -0.0126
    1W        W65758  21.871  18.794   6.035  0.0875 -0.0730  0.1465
    1W        W65759  20.479   4.767   6.304  0.1131  0.0852  0.1004
    1W        W65760  27.924  19.847   1.336 -0.0256  0.0524 -0.0847
    1W        W65761  23.614  14.264   8.230  0.2756  0.0016 -0.3157
    1W        W65762  20.418  14.989   1.028 -0.1442 -0.1492  0.0719
    1W        W65763   7.070  12.030   0.566 -0.0931  0.1061  0.0742
    1W        W65764  16.748  24.691   1.794 -0.0735 -0.1642 -0.0582
    1W        W65765  12.404   3.355   6.401  0.0761  0.2484  0.0227
    1W        W65766  27.748   4.068   0.357  0.0915 -0.0655  0.0281
    1W        W65767   1.726   9.858   9.159  0.1353 -0.0447 -0.1675
    1W        W65768  21.233  14.473   1.220 -0.5452  0.0880 -0.2382
    1W        W65769  20.958  22.410   6.909 -0.0993  0.1030  0.0574
    1W        W65770  19.547  28.544   8.114  0.1287  0.2028  0.0525
    1W        W65771  19.819  29.150   3.041 -0.0602 -0.2901 -0.1257
    1W        W65772   3.209   2.170   9.230 -0.1665 -0.0403  0.0147
    1W        W65773  12.067   2.457   8.631  0.1265 -0.0446 -0.0707
    1W        W65774   1.821  10.511   2.569  0.2281 -0.0076  0.4062
    1W        W65775   0.899  10.138   1.446  0.3461  0.2110 -0.2720
    1W        W65776  25.585  26.902   0.018 -0.1233 -0.2669  0.1111
    1W        W65777  15.356  13.743   1.363  0.0323  0.2640 -0.0689
    1W        W65778   4.053  24.128   9.259  0.1481  0.2027 -0.1106
    1W        W65779  23.829   3.736   7.025  0.2692  0.0066 -0.2871
    1W        W65780  21.626  10.258   7.673 -0.2086  0.0598  0.3411
    1W        W65781  21.231  29.787   2.406  0.0343 -0.1446 -0.0398
    1W        W65782  22.561  28.742   0.022  0.1067 -0.0078  0.0373
    1W        W65783   9.203  10.333   7.082  0.0738 -0.0277 -0.3114
    1W        W65784   3.391  25.654   9.129  0.1478  0.0638 -0.1864
    1W        W65785   7.854  17.083   6.228 -0.4076  0.0240 -0.2351
    1W        W65786  29.985  27.635   0.472 -0.0973 -0.0361  0.1130
    1W        W65787   9.107  26.470   8.853 -0.0447  0.0164  0.0974
    1W        W65788   2.938   5.330   1.883 -0.1468  0.6747  0.2246
    1W        W65789  12.332   8.579   6.468  0.2597 -0.4281 -0.0340
    1W        W65790  24.326  19.675   0.455 -0.0814  0.1793  0.2849
    1W        W65791  16.923  22.159   0.868 -0.1034 -0.0268  0.0280
    1W        W65792  14.581   5.277   1.026 -0.3429 -0.0352  0.1782
    1W        W65793   0.786  29.450   3.300  0.6206  0.0635 -0.4068
    1W        W65794   1.837  28.081   2.162 -0.1066  0.1608  0.1478
    1W        W65795  15.467  28.695   6.839  0.0150  0.4729 -0.2937
    1W        W65796  25.661  29.882   1.225 -0.0337  0.1317 -0.1084
    1W        W65797   7.251   4.048   0.795  0.1968  0.0586  0.0034
    1W        W65798  29.313  22.776   1.686 -0.1781  0.2122 -0.5258
    1W        W65799   8.944   8.062   7.932 -0.3709 -0.0449 -0.1672
    1W        W65800  24.787   4.040   0.346 -0.2652  0.2027  0.1740
    1W        W65801  22.221   3.827   2.233 -0.4678  0.1591 -0.1133
    1W        W65802  29.488  24.885   1.705 -0.0764  0.1613 -0.0182
    1W        W65803   5.386  21.900   0.836  0.0498 -0.0503 -0.2526
    1W        W65804  30.116  26.498   1.632 -0.1057  0.2725  0.3339
    1W        W65805  29.297   5.922   2.410 -0.2808  0.0203 -0.2336
    1W        W65806  21.656  14.761   7.421  0.1424  0.1150  0.0969
    1W        W65807  17.735  11.646   0.809 -0.1547  0.1804 -0.2802
    1W        W65808  21.319   2.467   0.423  0.0084 -0.0319  0.2522
    1W        W65809  15.287   6.095   7.027 -0.1200  0.2913  0.0557
    1W        W65810  23.084   3.466   0.809  0.1355  0.0623  0.0182
    1W        W65811  23.494  12.122   8.445 -0.0110  0.0113  0.1143
    1W        W65812  16.122  13.027   0.922  0.0473  0.1425  0.0246
    1W        W65813  23.462  11.174   0.599 -0.2947  0.0962  0.0275
    1W        W65814  22.670  11.246   8.549  0.1880 -0.2065 -0.0226
    1W        W65815  17.218  17.803   8.554 -0.1418  0.0223 -0.2065
    1W        W65816   3.635   6.127   2.609 -0.0338 -0.3673 -0.2237
    1W        W65817  11.605   9.892   7.285  0.3617  0.1907  0.1974
    1W        W65818   3.506  28.424   8.338 -0.0037  0.0684  0.2186
    1W        W65819  18.495   2.858   8.685  0.2710  0.4911  0.1752
    1W        W65820  24.195  22.986   6.708 -0.0432 -0.2987 -0.2914
    1W        W65821   7.393  11.875   7.881  0.3538  0.1276 -0.1532
    1W        W65822  22.924  27.487   0.657 -0.1826  0.3094 -0.2718
    1W        W65823  22.001  17.456   7.878 -0.0415 -0.0865 -0.3032
    1W        W65824  10.018  28.119   8.087  0.0550 -0.0185  0.5477
    1W        W65825   1.499   1.803   2.575  0.0754 -0.1664 -0.4071
    1W        W65826  13.862   2.156   2.859 -0.0451 -0.0900  0.0017
    1W        W65827  27.081  20.829   1.596 -0.1461 -0.0066 -0.2664
    1W        W65828  15.262  12.975   1.362 -0.0701 -0.0130  0.0496
    1W        W65829  19.922  13.204   1.779 -0.0639  0.1973  0.0413
    1W        W65830  10.466  22.147   6.503 -0.0011  0.3453 -0.1676
    1W        W65831   5.148  10.224   8.801 -0.1974 -0.0089 -0.2797
    1W        W65832  14.588   0.039   9.073  0.0948  0.3765  0.0064
    1W        W65833  21.024   9.863   6.778  0.0866  0.2045  0.2189
    1W        W65834  25.605  27.424   8.098  0.0486 -0.0095  0.1188
    1W        W65835  16.609  17.877   2.027 -0.1948  0.0022  0.0764
    1W        W65836  24.218   6.114   7.528 -0.3152 -0.0918  0.1830
    1W        W65837   1.349  14.821   7.267  0.1203 -0.1475  0.0166
    1W        W65838  12.004   0.153   1.642 -0.1534  0.2174 -0.0592
    1W        W65839  27.884  14.803   8.655 -0.2238 -0.0301 -0.0736
    1W        W65840  13.401   6.892   1.874 -0.1976  0.2703 -0.1797
    1W        W65841   9.623  29.554   1.530  0.2974  0.2637  0.3390
    1W        W65842  21.934   3.972   6.150 -0.2172  0.2225 -0.0105
    1W        W65843  22.959  22.529   7.149 -0.1913  0.1961  0.1968
    1W        W65844   1.167   9.703   1.490 -0.2553  0.4290 -0.0182
    1W        W65845   7.814  22.669   6.368  0.0214  0.3441  0.1430
    1W        W65846  17.158  24.032   7.096  0.0455  0.0452 -0.0755
    1W        W65847  14.737  12.828   8.762  0.1166 -0.1224 -0.0645
    1W        W65848  10.471  22.295   7.510 -0.1450  0.2750 -0.2288
    1W        W65849   1.753  11.118   7.437  0.1343  0.1066  0.0998
    1W        W65850  24.135  19.278   0.217  0.0689 -0.0640 -0.2548
    1W        W65851  16.376  28.314   2.656  0.3191  0.0274  0.2333
    1W        W65852  18.347   1.139   0.658 -0.0071  0.0625  0.0737
    1W        W65853   9.288   6.412   1.713 -0.1618 -0.1059 -0.2061
    1W        W65854   9.609   6.540   2.243  0.2404  0.0673  0.0563
    1W        W65855   8.124  28.126   8.486 -0.0977  0.0931 -0.3266
    1W        W65856  11.759   2.012   6.856  0.0507  0.1256 -0.0080
    1W        W65857  25.217   1.170   1.191  0.0001  0.0728 -0.1911
    1W        W65858  27.006   4.966   0.990 -0.2996 -0.2154  0.0390
    1W        W65859   6.205  25.425   1.985  0.0071  0.0821  0.0971
    1W        W65860  10.085  30.099   7.733  0.4987 -0.2258 -0.1933
    1W        W65861  19.877   6.160   2.883  0.1240 -0.0001 -0.0923
    1W        W65862   6.038  13.900   0.507  0.0640 -0.2606  0.1992
    1W        W65863  23.359   3.792   3.029  0.3218  0.1231  0.0203
    1W        W65864  16.289  14.356   0.744 -0.2459 -0.0085 -0.3686
    1W        W65865  30.221  16.377   8.791  0.0509 -0.0413  0.1771
    1W        W65866  19.503   3.201   7.779 -0.4468  0.0324 -0.0183
    1W        W65867   3.904   5.810   3.370  0.2170 -0.0811  0.1259
    1W        W65868   6.475  16.933   7.762  0.0411 -0.0831 -0.0941
    1W        W65869  19.628  26.232   7.685 -0.1987 -0.1698 -0.1690
    1W        W65870   9.952   3.788   1.068 -0.0065 -0.1754  0.1865
    1W        W65871   6.890  19.963   6.404 -0.2093 -0.3215 -0.0101
    1W        W65872  26.163  12.613   8.105  0.2663 -0.0014  0.1023
    1W        W65873   0.746  16.714   8.198 -0.0394  0.0774  0.0762
    1W        W65874  25.158   9.280   0.591  0.0445 -0.1397 -0.0702
    1W        W65875   8.205  26.627   8.639 -0.1936  0.1963 -0.2439
    1W        W65876  29.539  16.411   0.048  0.1956  0.0300  0.2860
    1W        W65877  29.597  17.147   8.126  0.0668  0.0486  0.1660
    1W        W65878  10.378   4.401   8.223 -0.2307 -0.0691 -0.0882
    1W        W65879   3.792   9.661   8.668 -0.1842 -0.1958  0.0943
    1W        W65880  29.343   7.619   8.121 -0.0960 -0.1945  0.1661
    1W        W65881  15.201  20.813   2.042  0.1901 -0.0573  0.0818
    1W        W65882  16.928  29.128   7.113  0.0445  0.0188 -0.1687
    1W        W65883   4.669   1.970   2.206  0.0215 -0.0534  0.0697
    1W        W65884  22.014  20.846   2.509 -0.1030 -0.2972  0.2028
    1W        W65885   2.636   4.900   7.576  0.0080  0.3306  0.0951
    1W        W65886  22.514  29.423   7.022  0.0887 -0.1784  0.1930
    1W        W65887  21.132  29.854   7.124 -0.0240 -0.1840 -0.0004
    1W        W65888  27.683  15.752   8.360  0.1215 -0.0585 -0.2760
    1W        W65889   4.263  24.199   8.398  0.4055  0.1256 -0.1067
    1W        W65890   7.245  27.111   8.660  0.1975  0.2966 -0.1593
    1W        W65891   3.776  13.100   8.295  0.2551  0.1691  0.0914
    1W        W65892  26.927  29.232   0.114 -0.1197  0.2644 -0.2974
    1W        W65893   1.085  28.003   7.872  0.0782  0.0208 -0.2651
    1W        W65894  18.269  19.990   2.196 -0.0202 -0.1754  0.3335
    1W        W65895  20.309  17.217   6.542 -0.0632 -0.2463  0.0515
    1W        W65896  25.341   5.629   2.047 -0.2092 -0.1791 -0.2318
    1W        W65897  23.911   6.395   1.346  0.0463 -0.0408  0.1268
    1W        W65898   7.258  28.236   3.098 -0.1269  0.0874  0.3570
    1W        W65899  25.397  17.627   8.806 -0.0511  0.1866 -0.2442
    1W        W65900  28.279   1.688   7.448 -0.2579 -0.1457 -0.0869
    1W        W65901  26.893   5.175   2.136  0.1743  0.0380  0.2339
    1W        W65902  11.027   1.544   1.481 -0.0890 -0.2447 -0.1928
    1W        W65903   9.030  28.133   2.669  0.0887  0.2428  0.2099
    1W        W65904  18.631  12.032   7.870 -0.1866 -0.2857  0.0840
    1W        W65905  22.563  20.923   1.370 -0.0990  0.3401 -0.2235
    1W        W65906  13.218  18.979   1.773  0.1025  0.2512 -0.0705
    1W        W65907   0.745   2.666   1.393 -0.3677 -0.0915  0.0039
    1W        W65908   7.770  11.436   0.440  0.0157 -0.0310  0.0844
    1W        W65909   3.959  29.133   2.652  0.2092 -0.1524  0.0915
    1W        W65910  23.712  28.790   2.338  0.2999 -0.0572 -0.0325
    1W        W65911   1.155   6.201   0.310 -0.4650 -0.0893  0.3071
    1W        W65912  11.928  23.285   8.202 -0.2220  0.1789 -0.2723
    1W        W65913   1.774  26.490   6.937 -0.0346 -0.3062  0.1348
    1W        W65914  29.924  16.079   9.081 -0.0848  0.2624 -0.0811
    1W        W65915  16.110  27.675   8.567 -0.3705  0.2773 -0.0464
    1W        W65916   9.797  26.043   5.884  0.0921 -0.0321  0.1219
    1W        W65917  17.843   1.664   8.362  0.0833 -0.2060 -0.0093
    1W        W65918  14.915  22.464   0.811 -0.0810  0.1184  0.2727
    1W        W65919   9.463  20.746   8.010  0.0185  0.0061 -0.0544
    1W        W65920   0.660  30.250   1.826  0.0586  0.0372 -0.3583
    1W        W65921  18.327  10.317   6.480  0.2201 -0.1651  0.0561
    1W        W65922  27.558   9.822   7.546 -0.0916  0.1601  0.2700
    1W        W65923   1.655   4.050   7.518  0.2055  0.2211 -0.1890
    1W        W65924  24.045   0.443   7.126 -0.0401  0.2754 -0.2331
    1W        W65925   5.420   5.428   7.781 -0.1921  0.0842 -0.1269
    1W        W65926  13.814   8.345   2.192  0.0390 -0.0422 -0.1289
    1W        W65927  11.520  25.175   7.127  0.0369 -0.0389 -0.1997
    1W        W65928   8.320  28.410   8.919 -0.0504  0.0794  0.0482
    1W        W65929  15.340  11.615   0.659 -0.0750 -0.0303 -0.3094
    1W        W65930  20.132  16.283   6.605  0.0373 -0.1640  0.2242
    1W        W65931   6.899  17.670   6.168  0.2886  0.0121  0.3616
    1W        W65932  16.032   9.618   7.416 -0.0818 -0.0165 -0.3835
    1W        W65933  22.244   0.898   2.520 -0.0599 -0.2400 -0.0025
    1W        W65934   2.320   6.923   7.334  0.0778 -0.1342  0.0023
    1W        W65935  27.467  18.311   1.440 -0.1721 -0.3231  0.1977
    1W        W65936   4.114  11.007   1.728  0.1440 -0.0394 -0.3369
    1W        W65937  24.132  11.459   8.084 -0.1355 -0.1880 -0.0484
    1W        W65938   4.846   8.527   1.324 -0.2819 -0.0389  0.0200
    1W        W65939  11.959  23.383   7.046 -0.2596 -0.3914  0.0565
    1W        W65940  22.552   3.426   2.041 -0.0624  0.0254 -0.0962
    1W        W65941   7.480   7.679   3.206 -0.0986  0.2402 -0.2115
    1W        W65942  13.103   7.248   0.334 -0.0489 -0.1058  0.1137
    1W        W65943  10.284  12.992   3.292  0.0464  0.2509 -0.2496
    1W        W65944  12.736  10.759   8.579 -0.4582  0.4995 -0.3161
    1W        W65945  21.868  12.727   6.850  0.0959 -0.2257  0.0128
    1W        W65946   8.003  22.633   9.229  0.1836 -0.2200  0.2082
    1W        W65947  24.688  22.385   6.574 -0.2728  0.3078 -0.0123
    1W        W65948  29.282   8.920   2.014  0.2020 -0.0552  0.0096
    1W        W65949  21.814   1.178   7.104 -0.0959 -0.1699 -0.0924
    1W        W65950  10.176  15.166   2.879 -0.1981  0.0912 -0.1227
    1W        W65951  10.103  27.611   6.608 -0.2218 -0.0064  0.0236
    1W        W65952   7.516  12.996   1.298  0.1161  0.2101  0.1269
    1W        W65953  27.198  16.671   1.253  0.0352  0.3061 -0.0110
    1W        W65954  15.434   5.216   7.048 -0.3315  0.0839  0.3702
    1W        W65955  24.706  18.148   7.284  0.1297  0.0134 -0.1451
    1W        W65956  23.196  27.581   2.428 -0.1079 -0.1883 -0.0026
    1W        W65957  17.907  28.743   1.141  0.4524 -0.1367  0.0932
    1W        W65958  20.213  27.766   2.436 -0.0064  0.1883 -0.0557
    1W        W65959  26.550   0.409   0.183  0.2408  0.1224  0.0911
    1W        W65960   1.134   4.777   0.082  0.2241 -0.0807  0.0061
    1W        W65961   1.712  28.822   7.845  0.0438 -0.1517 -0.0977
    1W        W65962  21.210  29.173   7.593  0.0685 -0.1337  0.1709
    1W        W65963  19.492  21.907   2.131  0.0440  0.3100  0.0353
    1W        W65964  14.258   0.229   6.452 -0.1144 -0.0698  0.4258
    1W        W65965  11.745  10.382   2.450 -0.0093  0.2253  0.0154
    1W        W65966  11.102   1.872   1.012  0.1069  0.2702 -0.1064
    1W        W65967  12.645  22.908   1.317  0.3438 -0.0058  0.1093
    1W        W65968  21.044   1.865   8.991 -0.3568  0.1451  0.0015
    1W        W65969  19.439   1.273   7.360  0.2669  0.0545 -0.0746
    1W        W65970   6.466  26.984   9.102 -0.0796 -0.1854  0.1211
    1W        W65971  14.718   5.702   1.857  0.1038 -0.2225  0.0654
    1W        W65972  10.658  29.836   6.765 -0.0913  0.3080  0.1355
    1W        W65973  17.508  23.378   5.969  0.1153 -0.3612 -0.1553
    1W        W65974  15.298  15.477   2.735 -0.0120 -0.1759  0.2857
    1W        W65975  28.396  10.074   0.812  0.0971 -0.0406  0.1376
    1W        W65976   3.645  14.156   8.408 -0.1406 -0.1255 -0.0141
    1W        W65977  12.302  29.841   2.439 -0.4184  0.0458 -0.0181
    1W        W65978  10.689  23.903   1.460 -0.0918 -0.0184  0.1015
    1W        W65979   3.352   6.937   6.905  0.2324 -0.0636 -0.0442
    1W        W65980  20.735   8.350   7.964  0.0550  0.2598  0.1055
    1W        W65981  12.840  11.289   1.312 -0.1681  0.2850  0.1944
    1W        W65982  18.370   0.127   9.101 -0.0042  0.0099  0.0781
    1W        W65983  19.195   5.479   0.053  0.1251  0.1234 -0.2493
    1W        W65984  20.961   6.824   2.752  0.0462 -0.0119  0.0321
    1W        W65985   7.469   5.847   3.038 -0.1369  0.0851  0.1969
    1W        W65986  10.309   1.365   0.911  0.0438 -0.2003 -0.2601
    1W        W65987   2.737  25.578   6.441 -0.0133 -0.0718 -0.0185
    1W        W65988  21.763   6.051   6.659  0.0245 -0.3498  0.0518
    1W        W65989   5.325  24.676   6.876 -0.0243 -0.1147 -0.0017
    1W        W65990  25.035   1.604   7.905 -0.2641  0.0194  0.1267
    1W        W65991   4.901  13.084   7.535 -0.0174 -0.1206  0.4324
    1W        W65992   3.318  10.412   7.859 -0.0199  0.0272  0.1217
    1W        W65993  27.877   8.535   6.880  0.0499  0.2211 -0.1511
    1W        W65994  24.235  18.971   8.154 -0.3623 -0.0076  0.0037
    1W        W65995  17.899  12.863   8.791  0.0833  0.1886  0.0444
    1W        W65996  21.763  25.416   7.190  0.2808 -0.1495 -0.2927
    1W        W65997  12.019  19.578   9.172 -0.0150  0.0049 -0.3587
    1W        W65998  26.432   9.948   6.351 -0.3782  0.1360 -0.3739
    1W        W65999   5.058  26.126   1.469 -0.0225 -0.1532 -0.0315
    1W        W66000  22.153  19.746   8.681  0.0491 -0.3353  0.1462
    1W        W66001   9.553   8.068   2.193 -0.1666 -0.4127  0.0063
    1W        W66002  25.368  13.553   7.141  0.3554 -0.2427 -0.3592
    1W        W66003  13.655  20.579   2.709 -0.1502  0.1541 -0.2604
    1W        W66004  23.216   0.366   9.269 -0.2302  0.1979  0.0015
    1W        W66005  18.152   3.794   8.815  0.1828  0.0042 -0.0443
    1W        W66006  23.783   9.300   0.428 -0.1925 -0.0481 -0.1192
    1W        W66007  12.117  11.350   8.545  0.0465 -0.0390  0.0666
    1W        W66008  27.273   5.496   7.966 -0.0949  0.1083 -0.0293
    1W        W66009  27.047  17.707   1.017 -0.0339 -0.1761 -0.0388
    1W        W66010  21.523  23.313   6.773 -0.0849 -0.2447  0.0421
    1W        W66011  23.647  14.804   2.577  0.1596  0.1510 -0.0746
    1W        W66012  26.038  22.778   8.486  0.1205 -0.4213  0.2969
    1W        W66013  12.909  12.461   0.027 -0.1465  0.1971 -0.0718
    1W        W66014  10.296  26.514   8.991 -0.0866 -0.0734  0.5073
    1W        W66015  21.589  12.776   6.266  0.3158 -0.2839 -0.1837
    1W        W66016   9.429  20.391   7.428  0.1121 -0.2628  0.1504
    1W        W66017   3.966  28.542   0.204  0.0795  0.2359 -0.3542
    1W        W66018  14.115  29.464   9.160  0.1628 -0.0919 -0.0595
    1W        W66019  19.346  20.332   0.722  0.3318  0.3341 -0.1374
    1W        W66020  30.016   4.554   0.364  0.0699  0.1609  0.0037
    1W        W66021  27.462  20.226   8.023  0.1104  0.4284 -0.2390
    1W        W66022  15.698  10.810   1.057 -0.0930  0.3893 -0.1304
    1W        W66023  17.567   3.911   9.244 -0.0559 -0.4764 -0.1063
    1W        W66024  27.964  22.569   8.963 -0.1391  0.0061  0.1682
    1W        W66025  24.013   5.129   8.873 -0.3447  0.0412 -0.1128
    1W        W66026   4.907   4.101   2.564 -0.4089 -0.0982 -0.1921
    1W        W66027   0.687  27.013   2.346  0.1892 -0.2475 -0.1777
    1W        W66028   4.174  28.290   2.393 -0.0410 -0.0905  0.0309
    1W        W66029  25.914  16.494   1.683  0.1067 -0.0273 -0.2403
    1W        W66030  28.319   4.099   3.728 -0.2345 -0.3111  0.2690
    1W        W66031  25.698  10.223   6.038  0.0023  0.1241  0.0705
    1W        W66032  25.179  26.882   2.521 -0.0634 -0.2678 -0.2629
    1W        W66033   9.189   7.233   2.226 -0.0724  0.0321  0.1629
    1W        W66034  29.275  27.118   6.721 -0.0779 -0.0194  0.2080
    1W        W66035  27.094  25.019   6.896 -0.1456  0.4231 -0.0527
    1W        W66036  24.845  17.842   9.048  0.1894  0.2186 -0.2586
    1W        W66037  16.453   5.195   5.284  0.0815  0.3549  0.2240
    1W        W66038  20.263   3.397   0.278 -0.2185  0.1321 -0.0603
    1W        W66039   6.620   2.546   1.398 -0.3191  0.2908  0.0970
    1W        W66040   6.720  11.605   8.474  0.2921  0.0418 -0.1537
    1W        W66041   6.377  19.152   1.572 -0.0050 -0.2244  0.0462
    1W        W66042  13.817  13.344   0.481 -0.0152  0.2075  0.0588
    1W        W66043  11.470  12.382   0.273  0.0161 -0.1789 -0.1348
    1W        W66044  12.004   7.591   8.311  0.0044 -0.0051 -0.2533
    1W        W66045  15.019  21.963   7.247  0.3326  0.1196 -0.2654
    1W        W66046  17.569   1.892   1.464  0.1016 -0.1090  0.0605
    1W        W66047  16.635  15.619   2.578 -0.2471  0.0388 -0.1279
    1W        W66048  15.402   1.294   2.536 -0.1907  0.0269 -0.1603
    1W        W66049   4.838  11.396   6.358  0.1799 -0.0681  0.3040
    1W        W66050  19.184  10.699   6.890  0.0078 -0.4300  0.0458
    1W        W66051   8.009   8.119   9.045 -0.0664 -0.1068  0.2399
    1W        W66052   2.958  18.625   8.521  0.1979 -0.2568  0.1850
    1W        W66053  22.523  12.690   7.385 -0.0939 -0.0326 -0.1830
    1W        W66054  13.815  10.334   1.478 -0.0248 -0.4261  0.0414
    1W        W66055  16.214  12.189   2.427  0.0862  0.2131  0.4095
    1W        W66056   9.433  18.648   5.527  0.3351  0.3857 -0.2026
    1W        W66057   9.463  22.992   8.835  0.1418 -0.2461  0.1355
    1W        W66058  13.116   4.574   2.182 -0.1863 -0.1157  0.2404
    1W        W66059  28.000  19.551   8.999 -0.1783 -0.4005 -0.1068
    1W        W66060  11.896   5.173   0.982  0.0561 -0.2211 -0.0958
    1W        W66061   9.757   7.803   6.660  0.1248 -0.1625 -0.1600
    1W        W66062   4.562   3.116   7.761  0.0526 -0.0379 -0.0223
    1W        W66063  15.041   5.239   8.317  0.0856  0.2886  0.1208
    1W        W66064  15.280  17.274   7.521 -0.1240 -0.0923 -0.0734
    1W        W66065   2.628  22.639   2.108  0.5024  0.0027 -0.0876
    1W        W66066   4.612  21.476   7.169  0.1204 -0.1843 -0.2689
    1W        W66067  27.928   7.769   1.126 -0.0137 -0.2340 -0.2298
    1W        W66068  19.342   5.194   0.657  0.0790 -0.0878 -0.2795
    1W        W66069  11.263  15.901   1.539  0.0460 -0.3232  0.1565
    1W        W66070   0.969  10.203   7.781 -0.1866 -0.0747  0.3309
    1W        W66071   4.180   4.749   8.431 -0.0818 -0.1298 -0.3761
    1W        W66072  12.384   3.134   6.911  0.2484  0.4127  0.1369
    1W        W66073   0.635  13.076   0.315 -0.3482 -0.0779  0.0628
    1W        W66074   9.973  10.234   9.157  0.0455 -0.1191  0.0384
    1W        W66075  15.715  26.776   6.699 -0.2732 -0.0823 -0.0679
    1W        W66076  25.496   0.761   7.551  0.3240  0.0269 -0.1019
    1W        W66077  21.350  25.153   7.303  0.1143 -0.1556 -0.0928
    1W        W66078   2.678   8.230   1.284  0.1087 -0.2442 -0.3098
    1W        W66079  12.287  28.494   1.931  0.0384  0.0877 -0.3193
    1W        W66080   8.850  23.655   8.768 -0.1033 -0.2550  0.1391
    1W        W66081  17.754  10.187   2.290 -0.1263 -0.0360  0.0370
    1W        W66082   5.001   5.957   1.171  0.0690 -0.1015 -0.1891
    1W        W66083   8.612  24.842   7.407  0.0234  0.0773  0.0719
    1W        W66084  11.365  21.218   6.849 -0.0404  0.3927 -0.0822
    1W        W66085  21.063  17.974   6.527 -0.1051  0.0821 -0.3245
    1W        W66086   6.329  15.210   0.001 -0.4644 -0.1940  0.1512
    1W        W66087  16.103  17.867   7.797  0.2352  0.2308  0.2604
    1W        W66088  13.432  17.077   1.964 -0.1637  0.0948  0.1552
    1W        W66089  27.227  14.637   7.879 -0.2394  0.0943 -0.3407
    1W        W66090  21.406  24.632   7.525 -0.0822  0.0247 -0.3948
    1W        W66091  22.147  21.719   1.033  0.1895  0.1628  0.0058
    1W        W66092   7.337  24.853   9.207 -0.0623  0.1943  0.0493
    1W        W66093  23.045  24.443   0.501  0.0054 -0.0912 -0.0429
    1W        W66094  19.695  26.402   8.192  0.3303 -0.1715  0.2240
    1W        W66095   5.311  22.225   6.789  0.1243  0.0671  0.3282
    1W        W66096  11.368   2.847   1.807 -0.4002 -0.3750  0.0888
    1W        W66097  19.179  15.985   1.663  0.0426 -0.3466  0.3474
    1W        W66098  23.092  17.730   6.278  0.3549 -0.0717  0.0510
    1W        W66099   7.942  22.970   7.253  0.2608  0.1521 -0.2148
    1W        W66100  18.283   5.737   6.297  0.0871  0.0871 -0.4593
    1W        W66101  27.063   6.689   7.779 -0.0354  0.0303  0.2521
    1W        W66102  15.723   7.566   8.752  0.0445 -0.0000  0.0580
    1W        W66103  11.598  17.347   2.642 -0.0725 -0.2974 -0.1663
    1W        W66104   9.394  18.214   0.104 -0.2801 -0.0552 -0.2046
    1W        W66105  26.193  19.819   2.108  0.1393  0.1517 -0.1035
    1W        W66106   8.926  11.673   0.883 -0.1914  0.2916 -0.1324
    1W        W66107  10.368   6.123   2.061  0.0721 -0.1008  0.0655
    1W        W66108  15.356  12.921   2.836  0.1045 -0.0341  0.0153
    1W        W66109  23.881   4.318   8.388 -0.0789 -0.0619  0.0906
    1W        W66110  26.632   1.089   0.643  0.0990 -0.1752 -0.1200
    1W        W66111   7.550  28.804   2.349  0.0429 -0.1471 -0.1861
    1W        W66112  24.409  27.073   0.932 -0.2072  0.0580 -0.0995
    1W        W66113   1.248  23.874   8.721 -0.2438  0.1092  0.2133
    1W        W66114  12.150  25.723   1.476  0.0548  0.0199  0.6041
    1W        W66115  11.241   1.141   8.458  0.1761 -0.3066  0.2569
    1W        W66116   0.999  15.330   7.175 -0.0808  0.0254 -0.0972
    1W        W66117  25.026   1.244   1.673  0.2569 -0.2321  0.0803
    1W        W66118   8.826   0.241   7.433  0.0487  0.0545  0.1540
    1W        W66119  19.964   6.126   2.329 -0.1387 -0.3912 -0.3456
    1W        W66120  10.669   7.138   7.238  0.1035 -0.1948  0.3409
    1W        W66121  12.705  30.205   1.751 -0.0936  0.4070 -0.1389
    1W        W66122   4.696  20.463   7.791  0.3787 -0.1801 -0.1887
    1W        W66123   3.603  16.596   8.816  0.0465  0.2672  0.1626
    1W        W66124  16.993  16.093   9.181 -0.1611 -0.0741  0.1266
    1W        W66125   5.460  20.403   7.425  0.2882  0.0108  0.1267
    1W        W66126  30.191   2.500   7.291 -0.0762 -0.0217  0.4368
    1W        W66127   5.025   6.728   0.597 -0.0496 -0.0293  0.3202
    1W        W66128  16.179   3.116   8.034  0.1132  0.1603 -0.2215
    1W        W66129   2.098   3.762   2.643  0.0521 -0.2074  0.0151
    1W        W66130  15.608  25.452   8.383  0.0997  0.3435  0.1780
    1W        W66131  29.474  21.128   2.195  0.2339 -0.2186 -0.1990
    1W        W66132  10.569  18.473   1.476  0.2991 -0.3238  0.0644
    1W        W66133  20.571  16.742   0.390 -0.1077  0.0079 -0.1216
    1W        W66134  23.904  20.928   6.788  0.4578  0.0531 -0.1226
    1W        W66135   9.707   2.971   7.744 -0.0329 -0.3017 -0.1477
    1W        W66136   4.479  27.101   2.435 -0.3234  0.0641  0.0146
    1W        W66137  29.680  25.032   8.020 -0.0416  0.0504 -0.1762
    1W        W66138  22.214  22.872   9.079  0.2234 -0.0642  0.0287
    1W        W66139  15.230  24.088   6.689 -0.1002 -0.2602  0.0664
    1W        W66140   1.852  19.396   7.159 -0.0750  0.3301  0.1455
    1W        W66141  12.831  11.544   2.882 -0.0571 -0.0426 -0.5128
    1W        W66142  29.023   7.259   8.310  0.0129  0.1899  0.2679
    1W        W66143   9.373   5.397   8.153  0.0279 -0.1040  0.1664
    1W        W66144  10.104  16.719   7.347 -0.0213 -0.0606 -0.0804
    1W        W66145  13.540  17.528   6.241 -0.2791 -0.1433  0.1364
    1W        W66146   3.929   2.574   7.007 -0.1675 -0.0247 -0.1200
    1W        W66147   1.391  13.200   6.807 -0.2619  0.1862 -0.0072
    1W        W66148   9.856  23.382   8.614  0.1782 -0.0713 -0.1267
    1W        W66149   5.959  13.177   8.585 -0.0449 -0.1876  0.1472
    1W        W66150   2.864   1.360   1.213 -0.1401  0.0857  0.0730
    1W        W66151  23.314   4.463   7.216  0.1215  0.0150  0.2008
    1W        W66152  10.333   1.662   0.097  0.0069 -0.1721  0.0349
    1W        W66153   2.493  20.381   7.197 -0.3530  0.1621 -0.0297
    1W        W66154  11.597  17.332   9.051  0.2097 -0.0397  0.0871
    1W        W66155   2.241   0.240   9.000  0.0196  0.1245 -0.0253
    1W        W66156   9.774  20.976   1.970 -0.0724  0.2289  0.1721
    1W        W66157  27.724  29.032   7.251 -0.0153 -0.1536  0.0868
    1W        W66158  11.278  15.413   7.051  0.1317  0.1358 -0.1696
    1W        W66159  15.907  12.892   0.482  0.0353 -0.1615 -0.1574
    1W        W66160  15.721  16.395   0.764  0.1678 -0.0532  0.2434
    1W        W66161  23.877  13.139   1.626 -0.0999  0.3129  0.0953
    1W        W66162  10.843   5.933   1.882 -0.2034  0.1491 -0.0499
    1W        W66163  12.693   6.238   2.335 -0.0627 -0.1090  0.1422
    1W        W66164  27.770  20.571   7.768 -0.1386 -0.0575 -0.1510
    1W        W66165  24.443  13.244   8.093 -0.2293 -0.0193 -0.0925
    1W        W66166  19.053  24.545   0.060  0.1910 -0.1818 -0.2204
    1W        W66167  20.067   3.682   2.922  0.1571 -0.1869 -0.1707
    1W        W66168  21.831  11.397   7.285 -0.1998  0.0378  0.0146
    1W        W66169   7.725   4.736   9.091  0.1665  0.0808  0.3568
    1W        W66170  17.208   5.216   7.474 -0.2936  0.2351 -0.0254
    1W        W66171  17.868   3.842   7.453  0.0661 -0.0967  0.1180
    1W        W66172  25.771   1.095   7.353 -0.2573 -0.1800  0.1946
    1W        W66173  21.581  24.593   8.331  0.1542 -0.5685  0.1167
    1W        W66174  18.017  27.499   0.100 -0.2051  0.2080 -0.0276
    1W        W66175  27.737  30.127   3.344 -0.0720 -0.0856 -0.2228
    1W        W66176  25.693  11.867   1.277 -0.1526  0.2826  0.3311
    1W        W66177  18.971  12.733   6.535 -0.0887  0.2316  0.0789
    1W        W66178  20.429  20.346   8.973 -0.1168 -0.1540 -0.1879
    1W        W66179  13.603  19.291   6.881  0.2459 -0.1115 -0.0157
    1W        W66180   6.656  17.323   0.485 -0.0510 -0.2984 -0.2623
    1W        W66181   1.087  23.391   2.493 -0.0195  0.1038 -0.1638
    1W        W66182  26.450  26.386   1.845  0.0059  0.0476 -0.1211
    1W        W66183   8.774  25.681   6.976  0.1094  0.0340 -0.2134
    1W        W66184  23.578   9.623   8.896  0.0522 -0.1000  0.1079
    1W        W66185  16.542  20.969   2.561 -0.1717  0.1889 -0.1197
    1W        W66186  27.139  11.663   1.633  0.1755  0.0690 -0.1893
    1W        W66187  11.700   7.490   2.157  0.0113 -0.3984 -0.0689
    1W        W66188   7.932  21.885   7.313 -0.2443  0.0556  0.0021
    1W        W66189   9.872   1.477   7.361 -0.0912 -0.4034  0.1340
    1W        W66190   3.612  11.140   1.936 -0.2246 -0.0786  0.0320
    1W        W66191  12.860   3.436   1.476  0.1399 -0.1541 -0.1314
    1W        W66192  26.765  19.616   1.762  0.0935 -0.1880 -0.0395
    1W        W66193  14.728  12.196   6.900  0.0097  0.0287 -0.0557
    1W        W66194  20.085  19.407   8.758 -0.1276  0.0835 -0.0616
    1W        W66195   9.340  22.341   1.613  0.6105  0.0551  0.1991
    1W        W66196   1.049  15.121   2.101  0.0356 -0.3824 -0.1749
    1W        W66197   3.463   8.622   7.206  0.2326  0.0122  0.2944
    1W        W66198  20.924  17.681   2.509 -0.1694 -0.1072  0.0212
    1W        W66199  22.471  20.176   0.803 -0.0078  0.0693 -0.2359
    1W        W66200   5.564  10.837   8.729 -0.2170 -0.0560 -0.1161
    1W        W66201  21.476  13.589   1.237 -0.1261 -0.1753 -0.0825
    1W        W66202  16.743  19.808   9.059  0.3645  0.1216 -0.1454
    1W        W66203  24.934   8.931   7.054 -0.1273 -0.3370 -0.1847
    1W        W66204  14.174   4.696   3.195  0.1279  0.1503 -0.1961
    1W        W66205  21.468  29.777   0.643  0.2558 -0.1639  0.3153
    1W        W66206   5.262  26.611   8.116 -0.0634 -0.2049  0.0437
    1W        W66207  28.133  26.995   2.671  0.3404  0.1943 -0.1113
    1W        W66208   0.414   3.787   1.404 -0.1256  0.1396 -0.3188
    1W        W66209  17.437   5.073   8.725 -0.2513 -0.2835 -0.0144
    1W        W66210   6.482  26.951   2.328 -0.5244 -0.0774 -0.2029
    1W        W66211   9.395  28.774   8.410  0.0220  0.0173 -0.0831
    1W        W66212  30.054   6.151   0.196 -0.0913 -0.0430  0.2248
    1W        W66213   1.049  17.362   8.600  0.0959  0.0448  0.0455
    1W        W66214  22.249   6.452   8.443 -0.2371 -0.0788 -0.0268
    1W        W66215  14.885  12.949   0.371  0.1445  0.0728 -0.1952
    1W        W66216  16.823   5.218   6.556  0.0555  0.2596  0.1878
    1W        W66217   3.385   1.596   1.977 -0.0015  0.4596  0.2038
    1W        W66218  12.005  19.241   6.490  0.2552  0.1925 -0.1514
    1W        W66219  25.016   4.221   2.852 -0.1316  0.0604 -0.0191
    1W        W66220  24.440   2.011   8.032 -0.1762  0.1613 -0.0669
    1W        W66221  18.269  24.379   0.614  0.1762 -0.2691 -0.0108
    1W        W66222  12.421   7.234   7.368 -0.0966 -0.2767 -0.0732
    1W        W66223  29.904   9.792   8.774  0.1922 -0.1187 -0.0911
    1W        W66224  22.693  17.684   6.681 -0.2275 -0.2554  0.0979
    1W        W66225   3.066   6.023   8.241  0.1823  0.0247 -0.1427
    1W        W66226  14.665  30.061   8.242  0.3268  0.0866  0.1294
    1W        W66227   8.060  13.134   8.404 -0.0232 -0.0591 -0.2467
    1W        W66228  25.466  12.685   1.780  0.1355  0.2108  0.0563
    1W        W66229   7.316  28.899   0.334 -0.0262  0.2623 -0.2763
    1W        W66230   0.220  22.068   7.675  0.2374  0.2242 -0.1187
    1W        W66231   5.861  29.498   1.042 -0.1049  0.0338  0.0014
    1W        W66232  16.242  30.104   2.306  0.0195  0.1454 -0.2439
    1W        W66233  11.595  16.885   7.075 -0.0763 -0.2116  0.1590
    1W        W66234  24.951  25.136   8.862 -0.1135  0.0290  0.0899
    1W        W66235  22.069  14.068   7.253 -0.1387 -0.2635 -0.1487
    1W        W66236  20.009  18.566   0.574 -0.0217  0.2198 -0.0757
    1W        W66237  23.439  19.113   7.453  0.0827 -0.2648 -0.2659
    1W        W66238   1.095   8.723   1.626  0.0677 -0.0913 -0.2223
    1W        W66239  14.543  23.110   1.267  0.0039  0.0336 -0.1673
    1W        W66240  17.048  28.103   8.587 -0.2899 -0.0230  0.0692
    1W        W66241   9.731   6.914   7.474  0.4806  0.0031  0.3809
    1W        W66242  14.814  22.671   0.364 -0.0688 -0.0502  0.0270
    1W        W66243  19.358  25.054   1.963 -0.0033  0.0919  0.3437
    1W        W66244   5.007   2.800   0.299  0.0818 -0.0190 -0.2588
    1W        W66245  29.781  22.462   8.112  0.1952 -0.0258  0.0507
    1W        W66246  28.359  16.529   0.838 -0.0262 -0.1266 -0.1098
    1W        W66247  26.320  16.175   7.454  0.1805 -0.0672  0.0706
    1W        W66248  10.250  16.384   0.933 -0.1903  0.0426 -0.0529
    1W        W66249  29.432   4.406   7.639  0.0853 -0.2398 -0.0665
    1W        W66250  24.739   2.333   9.062  0.0021  0.2122 -0.1500
    1W        W66251  27.353   8.726   8.495 -0.2951 -0.2609  0.1082
    1W        W66252  12.221   4.959   2.488 -0.0946  0.1885 -0.0908
    1W        W66253  21.675   3.074   3.042 -0.3562  0.0177 -0.3487
    1W        W66254  30.092   4.793   1.956 -0.1630  0.0445  0.2131
    1W        W66255   0.156   7.923   6.724  0.2035  0.2763 -0.0390
    1W        W66256  16.537  10.371   1.448 -0.1254 -0.1615  0.0818
    1W        W66257  21.125   1.651   0.387  0.2167  0.2936  0.1332
    1W        W66258   9.223  25.777   6.148  0.2514 -0.1001  0.0357
    1W        W66259  11.989   7.245   8.714  0.4472 -0.0121 -0.2264
    1W        W66260  21.461  18.837   6.377  0.2705 -0.0370 -0.0396
    1W        W66261  25.010  16.144   7.581  0.0495 -0.0782 -0.1060
    1W        W66262   2.151   5.270   2.527 -0.1463 -0.0130 -0.0706
    1W        W66263  23.799   2.859   8.809 -0.0932  0.1362 -0.0137
    1W        W66264   3.273  19.842   6.343 -0.3870  0.0521  0.0037
    1W        W66265  28.255  24.551   2.836  0.0815 -0.5311  0.1131
    1W        W66266  14.910  25.306   9.234 -0.0620 -0.1947  0.0131
    1W        W66267   0.019  29.505   7.551 -0.0957 -0.0414  0.2004
    1W        W66268   7.981  21.138   1.473 -0.4338 -0.2391  0.1940
    1W        W66269   9.093  19.561   6.855  0.1152  0.2161 -0.1002
    1W        W66270   0.640   8.022   1.203  0.1109  0.1670  0.0130
    1W        W66271   0.242  22.329   1.505 -0.1731  0.0105 -0.1198
    1W        W66272   5.958  26.795   2.309  0.0550  0.2418 -0.1220
    1W        W66273  13.215   3.006   7.077 -0.2128 -0.0932 -0.0950
    1W        W66274  25.895  23.058   7.247 -0.1033  0.0264 -0.2392
    1W        W66275  12.146  22.576   2.537 -0.2158 -0.0473  0.1872
    1W        W66276  26.762   4.597   7.883  0.1639  0.3141  0.0487
    1W        W66277   8.140  16.873   1.174  0.1552  0.0557 -0.0018
    1W        W66278   2.016  21.631   7.324  0.0497  0.1113  0.0235
    1W        W66279  23.523   8.783   5.085  0.3499 -0.2708 -0.3254
    1W        W66280   1.200  13.233   1.080 -0.0427 -0.1193  0.1640
    1W        W66281   5.106  19.037   1.085  0.1118  0.1214  0.2269
    1W        W66282   1.186  11.792   0.504  0.0877 -0.1965 -0.1085
    1W        W66283  17.238   0.242   2.346  0.1176 -0.0099 -0.2917
    1W        W66284   2.170   6.291   8.369  0.1562  0.3310  0.1142
    1W        W66285   9.157   8.441   8.409 -0.1018 -0.0555  0.2176
    1W        W66286   8.144   8.815   0.757 -0.1543  0.0103 -0.1052
    1W        W66287  12.167  29.347   2.519 -0.1757  0.1064  0.0928
    1W        W66288  17.992  23.279   5.734 -0.0818  0.0172 -0.1824
    1W        W66289  11.084  19.154   6.973 -0.0272 -0.0290  0.0184
    1W        W66290  21.378  14.188   0.786  0.0282  0.2954 -0.0534
    1W        W66291  28.180  11.444   0.634 -0.1473 -0.0011 -0.0438
    1W        W66292   9.679  27.757   1.844 -0.2072  0.1514  0.1725
    1W        W66293  15.160  24.263   7.153 -0.1480  0.1225 -0.4020
    1W        W66294   5.015  10.763   0.237 -0.0806  0.0497 -0.1096
    1W        W66295   5.715  23.505   0.025 -0.0060 -0.1059  0.4180
    1W        W66296  13.377  19.430   0.146  0.0699 -0.2065 -0.0635
    1W        W66297  23.122  24.437   7.727 -0.2632 -0.2479 -0.2272
    1W        W66298   0.142  25.702   7.131 -0.1131 -0.1267 -0.0717
    1W        W66299  23.925   2.948   2.176  0.2278 -0.0923  0.2649
    1W        W66300  26.265  26.229   9.111 -0.2223  0.4438  0.3686
    1W        W66301   8.780   7.077   1.933  0.0907  0.3174 -0.3354
    1W        W66302  16.007  12.093   0.711 -0.1304  0.1614 -0.0257
    1W        W66303  24.807  20.391   7.340  0.5617  0.1009 -0.0333
    1W        W66304  18.471  19.523   8.193 -0.0982  0.1442  0.0260
    1W        W66305   5.339  26.499   0.189  0.1431  0.1087 -0.1852
    1W        W66306  17.352  30.029   0.715  0.1385 -0.1343 -0.1706
    1W        W66307   3.555  12.882   9.022  0.0639 -0.0228  0.2501
    1W        W66308   3.501  24.220   2.872  0.1073  0.1031 -0.0393
    1W        W66309  12.475   6.791   0.724 -0.0840  0.0664  0.0753
    1W        W66310  14.464  28.330   2.325 -0.3360 -0.1287  0.0782
    1W        W66311   0.407  17.467   9.125 -0.3886  0.1610  0.3397
    1W        W66312  12.446   0.446   2.470  0.4616 -0.0042  0.0011
    1W        W66313  13.145  26.154   1.782  0.1351 -0.1123  0.0877
    1W        W66314  12.998   1.833   1.400  0.0122 -0.1337 -0.2999
    1W        W66315  17.021   8.826   0.041  0.3797  0.0488 -0.0287
    1W        W66316  18.394  12.519   2.121 -0.0488 -0.1943  0.0189
    1W        W66317   4.643  24.309   1.874  0.2732  0.2256 -0.0675
    1W        W66318  10.097  11.934   8.735  0.0175 -0.2816 -0.0352
    1W        W66319   2.121  12.556   0.353  0.0018  0.0978  0.1881
    1W        W66320   7.184   6.139   0.470  0.3481  0.2359 -0.1803
    1W        W66321  24.410   9.913   5.826  0.2162 -0.2360 -0.0483
    1W        W66322   8.905  28.474   7.956 -0.1715 -0.2312 -0.0575
    1W        W66323  23.409  21.820   8.909 -0.2046  0.1215 -0.0199
    1W        W66324   8.506   9.189   7.340 -0.0883 -0.3907 -0.2300
    1W        W66325   9.909   0.490   7.265 -0.0960 -0.0284 -0.3082
    1W        W66326   0.408  20.411   6.720  0.2645 -0.0431 -0.0469
    1W        W66327   4.340  18.771   0.274 -0.1663  0.0669 -0.1700
    1W        W66328   4.404  20.909   0.126 -0.2479 -0.3440  0.0655
    1W        W66329  25.094  11.293   0.010  0.0412 -0.2876 -0.1725
    1W        W66330  20.607  19.500   7.777  0.2450  0.0030  0.0429
    1W        W66331   0.897   8.576   2.294 -0.2205 -0.1652 -0.5289
    1W        W66332   9.203  21.768   0.738 -0.2008 -0.0729 -0.1258
    1W        W66333  23.104   1.631   3.447 -0.1042  0.0536 -0.3300
    1W        W66334   4.123   5.826   8.588 -0.1448 -0.0877  0.0058
    1W        W66335  22.857  12.046   0.595 -0.0881  0.2166 -0.2054
    1W        W66336  24.725  13.045   0.632  0.0776  0.1046 -0.1806
    1W        W66337  28.706  17.580   6.789  0.1519 -0.0536 -0.1055
    1W        W66338  30.034   4.314   1.797  0.1636 -0.2433 -0.1320
    1W        W66339  25.252   4.694   0.631 -0.0016  0.2301  0.1439
    1W        W66340  25.505  27.773   1.918 -0.0043  0.0638 -0.1764
    1W        W66341  26.127  23.460   0.423 -0.1583 -0.2386  0.0340
    1W        W66342  22.347  10.083   7.312  0.3029  0.2071  0.0735
    1W        W66343  29.570   7.990   8.472  0.0442 -0.0585 -0.3278
    1W        W66344   3.704   4.026   9.160  0.0265 -0.3373 -0.0999
    1W        W66345   7.954  24.378   1.170  0.0285  0.0690 -0.1538
    1W        W66346   8.778   6.359   9.219  0.2798 -0.2289 -0.0125
    1W        W66347   2.901   8.563   2.053  0.0734  0.1801 -0.0359
    1W        W66348  27.227  19.144   0.780 -0.0391  0.1424 -0.2657
    1W        W66349   9.639   0.073   8.188  0.0164  0.0626 -0.0004
    1W        W66350  29.174   6.294   8.253 -0.2121 -0.0970  0.2643
    1W        W66351  29.577  15.808   0.660 -0.2470  0.0189  0.0306
    1W        W66352   1.312  27.147   0.390  0.1147 -0.1825 -0.3905
    1W        W66353   8.054   2.106   1.125 -0.1417 -0.0531  0.1281
    1W        W66354   3.770   4.587   8.740 -0.2392 -0.1567 -0.1666
    1W        W66355   3.848   9.215   8.923 -0.2126 -0.1308 -0.0760
    1W        W66356  13.374  24.697   6.881 -0.0396  0.1443 -0.3173
    1W        W66357  27.031  25.153   1.717 -0.1310 -0.0615  0.1596
    1W        W66358  24.340  16.492   8.547  0.1894 -0.0149 -0.1555
    1W        W66359  19.614   5.238   1.115  0.0422 -0.1608  0.1166
    1W        W66360   6.359  24.320   7.092 -0.0263 -0.1430 -0.0693
    1W        W66361  23.746  19.120   9.186 -0.2377  0.0310  0.1374
    1W        W66362   3.265  13.125   0.069  0.0470  0.0470  0.3092
    1W        W66363  20.036   4.210   7.166 -0.2409 -0.5664 -0.1211
    1W        W66364  29.795  27.151   2.568 -0.3019 -0.2154  0.1404
    1W        W66365  24.713  10.997   7.581  0.2890 -0.0794 -0.0427
    1W        W66366  19.875  23.352   7.212 -0.3113 -0.1026  0.0387
    1W        W66367  23.789   1.594   1.792  0.0295  0.1804  0.0517
    1W        W66368  19.875  13.733   2.691  0.0069  0.2516  0.3487
    1W        W66369  22.728   2.006   1.448  0.0441  0.0876 -0.1793
    1W        W66370  22.474  23.381   8.247  0.2767 -0.0241 -0.0458
    1W        W66371   5.140  13.371   0.669  0.1301  0.0983 -0.1365
    1W        W66372   7.823   2.395   0.522  0.0879  0.0023  0.1194
    1W        W66373   4.569  29.880   1.312  0.0187  0.0899  0.1377
    1W        W66374   7.576  30.101   2.751 -0.0979 -0.0549 -0.3231
    1W        W66375  23.480  13.222   6.503 -0.1190 -0.0088 -0.1782
    1W        W66376  22.644  25.872   6.271 -0.1078  0.1110 -0.1382
    1W        W66377  21.578   5.862   8.205 -0.2054  0.4001  0.3846
    1W        W66378   8.657  23.667   1.204  0.3274 -0.0299 -0.1926
    1W        W66379  18.916  25.693   0.299 -0.2039 -0.4578 -0.2586
    1W        W66380  22.805  27.539   7.069  0.1439  0.0155 -0.1202
    1W        W66381   6.894   5.679   8.283  0.1892 -0.0027 -0.1548
    1W        W66382  15.327  24.252   3.044  0.0760  0.1502 -0.4394
    1W        W66383   3.713  24.486   0.021 -0.0517  0.3433 -0.1030
    1W        W66384   7.755   2.848   3.205  0.2337  0.0249  0.4142
    1W        W66385  13.860  23.073   2.202  0.1053  0.1680  0.1370
    1W        W66386   1.383  29.360   0.473 -0.1903 -0.0100 -0.0819
    1W        W66387  25.714  10.285   1.874  0.1121 -0.1488 -0.3349
    1W        W66388  17.728   6.309   0.882 -0.2030 -0.0632  0.0922
    1W        W66389  25.656  16.538   6.976  0.1101 -0.1872 -0.5911
    1W        W66390   4.769  15.575   8.863 -0.0031  0.0788  0.2043
    1W        W66391  16.822   4.697   0.930 -0.0039  0.2783 -0.0033
    1W        W66392   1.827   5.438   0.164  0.1435  0.0429  0.0404
    1W        W66393  15.264  22.895   1.669  0.0035 -0.1474  0.2598
    1W        W66394   4.572   8.211   7.849  0.3108 -0.0336 -0.0996
    1W        W66395  12.325  18.754   7.272 -0.0068  0.3097 -0.4380
    1W        W66396   7.944   5.239   2.782 -0.2637 -0.3353  0.3343
    1W        W66397  15.498  28.221   2.569 -0.2835  0.0172 -0.0725
    1W        W66398   4.973   1.764   7.913 -0.1247 -0.1928  0.0801
    1W        W66399  26.163   7.052   0.061 -0.2165  0.0324 -0.1895
    1W        W66400  19.454  17.597   8.722  0.1563  0.0912 -0.0849
    1W        W66401  13.497  26.793   7.303  0.1243 -0.3872  0.0199
    1W        W66402   2.892  20.281   8.125 -0.1127  0.4182  0.0790
    1W        W66403  18.291  18.742   7.164  0.0096  0.0947 -0.2413
    1W        W66404   1.615  16.036   7.709 -0.0760 -0.2094  0.0449
    1W        W66405  23.074  20.079   1.950  0.0989 -0.1278 -0.2582
    1W        W66406  11.211  27.833   7.288 -0.1167  0.4830  0.3264
    1W        W66407   9.254  10.150   0.721  0.1708 -0.2081 -0.2558
    1W        W66408  18.448   2.719   7.310  0.0162 -0.0542  0.1524
    1W        W66409  28.674  15.859   0.189 -0.0003  0.1290 -0.0291
    1W        W66410   1.497   6.344   2.466  0.0313 -0.1118 -0.1998
    1W        W66411  19.944   1.558   6.210  0.1753 -0.2475  0.0223
    1W        W66412  22.263   6.709   7.140 -0.3619 -0.0727 -0.3313
    1W        W66413   4.363   5.213   0.717  0.2593  0.6863 -0.0497
    1W        W66414  25.368  14.339   1.535  0.1374  0.1180 -0.2900
    1W        W66415  29.022  14.735   0.069  0.0084 -0.2290 -0.1008
    1W        W66416  17.268   6.705   0.435 -0.0171  0.1908  0.4252
    1W        W66417   6.879  29.279   9.176 -0.1024  0.1551 -0.0038
    1W        W66418   4.130   4.319   9.033 -0.1504 -0.1994 -0.1679
    1W        W66419   8.615  29.755   8.613 -0.0179  0.2233 -0.0588
    1W        W66420  25.183  16.059   6.576 -0.2098 -0.0889  0.2156
    1W        W66421   3.430  11.864   0.402  0.1286  0.3796  0.1928
    1W        W66422  26.055   6.226   0.682  0.0912  0.3496  0.1665
    1W        W66423  14.258  27.020   0.807  0.0150 -0.0105  0.3268
    1W        W66424   0.991  17.741   8.322  0.1186 -0.0138 -0.2442
    1W        W66425  19.657   8.859   0.967  0.1740 -0.2432 -0.0222
    1W        W66426   8.012   9.199   6.518 -0.0076  0.0563 -0.2822
    1W        W66427  28.299  24.626   7.369 -0.2207  0.0550 -0.1641
    1W        W66428  18.332  18.666   1.963  0.2184 -0.2521 -0.1157
    1W        W66429   7.817  13.476   7.477 -0.0147  0.1492 -0.0811
    1W        W66430   4.016   4.758   2.199 -0.0800  0.1020  0.1648
    1W        W66431   5.283   9.119   0.753  0.0620  0.1206  0.1304
    1W        W66432  13.492  18.456   7.227 -0.4412  0.0710 -0.0755
    1W        W66433  18.047  19.542   8.462 -0.1264  0.1260  0.0253
    1W        W66434   1.275   7.132   8.307 -0.0605  0.2334  0.3106
    1W        W66435  14.497   0.277   1.699 -0.0075  0.2460  0.0398
    1W        W66436  16.122  24.778   2.671  0.1948 -0.0738  0.2647
    1W        W66437  20.508  19.393   1.333 -0.3127  0.1751 -0.4387
    1W        W66438  29.112   2.827   7.685 -0.0893 -0.0097  0.1429
    1W        W66439  17.694   6.073   1.965 -0.3911  0.0224  0.0994
    1W        W66440  28.262  17.318   1.990  0.1728  0.0164  0.0120
    1W        W66441  26.979  21.625   2.114 -0.1527  0.0897 -0.1858
    1W        W66442  15.451   8.653   6.968  0.0789 -0.2657 -0.0646
    1W        W66443  11.624   4.955   2.710 -0.3635 -0.0568 -0.1728
    1W        W66444  26.306  11.201   1.327  0.0322  0.0428  0.0751
    1W        W66445  25.293  29.918   2.124 -0.0691  0.2021  0.0881
    1W        W66446  22.500   9.182   1.408 -0.2839  0.0208 -0.1439
    1W        W66447   4.961  19.338   6.479  0.0893  0.0497 -0.1239
    1W        W66448  13.471   9.879   6.982  0.0667  0.3795  0.2579
    1W        W66449  17.528   6.957   0.089 -0.1247  0.0583  0.1778
    1W        W66450   2.232  22.460   1.358  0.1041  0.2662 -0.0429
    1W        W66451  21.550  12.318   7.058 -0.1037 -0.1076  0.1130
    1W        W66452   8.771   8.315   2.443  0.0456  0.0188  0.1245
    1W        W66453   4.515  16.769   0.704 -0.3797 -0.0842 -0.0459
    1W        W66454  20.883  10.898   7.165 -0.1634 -0.2177  0.0423
    1W        W66455  15.100  22.287   6.838  0.2832  0.2492 -0.0359
    1W        W66456  22.255  21.631   8.305  0.1165 -0.4004  0.0376
    1W        W66457  12.314  17.347   8.620 -0.3189  0.1055  0.1271
    1W        W66458   9.585  12.941   7.376  0.1132 -0.2643  0.1040
    1W        W66459  11.522  25.304   8.217 -0.1745 -0.3710 -0.0772
    1W        W66460   5.583   4.335   0.110 -0.0203  0.0773  0.0209
    1W        W66461  22.806  25.898   2.479  0.1220  0.0478 -0.0206
    1W        W66462  14.451  13.611   1.327 -0.1715 -0.0333 -0.0770
    1W        W66463  14.649  10.601   1.732 -0.2432 -0.1327 -0.0154
    1W        W66464  18.773   2.220   8.624 -0.0657  0.2324 -0.1994
    1W        W66465   0.585  11.210   8.495  0.2440 -0.1189  0.0156
    1W        W66466  18.922  14.201   6.437 -0.2883  0.0744 -0.0416
    1W        W66467   7.226  23.621   1.817  0.1970 -0.1606 -0.2081
    1W        W66468  23.365  16.309   7.461  0.1302 -0.1493 -0.0220
    1W        W66469  10.028  19.068   0.004 -0.2399 -0.0245 -0.0780
    1W        W66470  29.516   6.549   7.887 -0.1639 -0.3293  0.1932
    1W        W66471   8.832   3.340   7.627  0.3212 -0.1494 -0.2498
    1W        W66472  25.494  10.172   7.022 -0.1359 -0.0039  0.0334
    1W        W66473  12.960   6.972   2.062 -0.2404  0.0222  0.2645
    1W        W66474   6.721   6.989   7.379  0.1371 -0.4167 -0.3231
    1W        W66475  21.334   9.698   2.280 -0.0356 -0.1112  0.1048
    1W        W66476   0.872  14.413   9.107 -0.1608  0.0034 -0.2620
    1W        W66477   1.164  13.710   1.223  0.1341  0.1547  0.1755
    1W        W66478  24.817   1.968   3.357 -0.0938  0.0706 -0.0790
    1W        W66479  29.575   9.524   1.470 -0.0819  0.1951  0.0036
    1W        W66480  26.216  11.605   6.787 -0.0378 -0.0562  0.0929
    1W        W66481  18.639   7.378   5.583 -0.0339 -0.0900  0.2415
    1W        W66482  15.146  25.156   6.246  0.3174 -0.1976 -0.1147
    1W        W66483  14.195  24.462   0.960  0.2610  0.1421 -0.2457
    1W        W66484   8.869  15.635   8.767  0.1643 -0.0048 -0.2016
    1W        W66485  19.164  15.413   7.659 -0.1084 -0.0700  0.3121
    1W        W66486   0.403  28.705   7.844 -0.1457 -0.0439 -0.2060
    1W        W66487  29.722   5.415   2.100  0.0154  0.1254  0.2754
    1W        W66488   2.336  19.539   8.621 -0.2386  0.0604  0.1282
    1W        W66489  27.977   0.977   1.072  0.0751 -0.0088  0.1909
    1W        W66490  19.537  17.999   7.472  0.0251  0.0678 -0.0274
    1W        W66491  14.695  26.117   0.606 -0.3266 -0.1746 -0.0661
    1W        W66492  10.772  12.764   1.666  0.1201 -0.0429 -0.1706
    1W        W66493   1.619   0.190   2.983  0.3101  0.1216  0.0806
    1W        W66494  28.761   4.427   1.753 -0.2038  0.3223 -0.3737
    1W        W66495   2.616  15.396   8.720  0.2558  0.0617 -0.2204
    1W        W66496  14.482  20.057   6.720  0.0219 -0.0344  0.0671
    1W        W66497  17.526  13.175   0.596 -0.0657  0.1580 -0.2965
    1W        W66498  12.447  17.151   9.049 -0.3652  0.3243 -0.2516
    1W        W66499  15.273  14.085   7.680 -0.0142  0.0693 -0.0389
    1W        W66500   8.206  10.858   8.657 -0.0906  0.3210  0.2691
    1W        W66501   2.624  26.890   9.017 -0.3165  0.0452  0.0698
    1W        W66502  17.238  20.605   1.369  0.0234 -0.0714  0.2405
    1W        W66503  21.611  28.394   7.977  0.0633  0.0089 -0.0147
    1W        W66504   8.857  24.085   6.743 -0.1937  0.0125  0.1066
    1W        W66505  20.781   9.996   1.817 -0.1985 -0.0319  0.1394
    1W        W66506   1.392  17.949   9.110  0.2334 -0.1650 -0.1263
    1W        W66507   0.553  10.302   7.982 -0.1801 -0.1856 -0.1361
    1W        W66508  24.461  30.295   0.015  0.1269  0.1896 -0.0710
    1W        W66509  18.610  21.051   7.662  0.0166  0.1959 -0.1433
    1W        W66510  25.091   3.012   2.693  0.0013 -0.1751  0.1511
    1W        W66511  23.602  12.487   8.180  0.2580 -0.3483 -0.2196
    1W        W66512  21.209  17.499   6.382 -0.2332 -0.0497 -0.1934
    1W        W66513  23.748  16.434   6.868  0.3463  0.1155 -0.0174
    1W        W66514   2.431  12.336   6.480 -0.1589  0.0364 -0.0142
    1W        W66515   4.169  26.804   2.785 -0.2929 -0.1430  0.0185
    1W        W66516  17.488  28.321   2.173 -0.0053 -0.0373  0.1514
    1W        W66517   1.438  10.228   7.134 -0.0313 -0.2715 -0.0335
    1W        W66518   2.911  29.181   1.664 -0.0277  0.2752  0.0760
    1W        W66519   2.365  14.348   7.825 -0.2117 -0.2989  0.1469
    1W        W66520  27.351   8.060   2.536 -0.0958 -0.2958 -0.2301
    1W        W66521  27.865   4.526   8.364 -0.0268 -0.3903 -0.1422
    1W        W66522  18.298  18.120   8.244 -0.0037 -0.1963 -0.0387
    1W        W66523  16.357  12.384   7.794  0.1133  0.1009 -0.3430
    1W        W66524  27.763  12.519   6.992  0.0317  0.2880 -0.3778
    1W        W66525  10.092   6.820   2.130 -0.1169 -0.0330 -0.1311
    1W        W66526  23.947  27.703   8.144  0.0636  0.1626  0.0036
    1W        W66527  17.121  21.081   8.895 -0.3123  0.0042 -0.2917
    1W        W66528   2.737   7.885   9.220  0.0199  0.1343  0.1364
    1W        W66529  12.662  15.250   2.202  0.0035 -0.0965 -0.1009
    1W        W66530  21.834  26.738   0.551  0.1597  0.0303  0.0763
    1W        W66531  23.384  24.142   6.956 -0.1644 -0.0140 -0.1479
    1W        W66532  14.549   5.362   8.761  0.2075  0.0927  0.0789
    1W        W66533  26.707  22.802   6.725 -0.0448  0.2143 -0.1153
    1W        W66534  21.058  18.665   6.023 -0.4500 -0.1178  0.1427
    1W        W66535  23.509   6.253   0.270  0.1124 -0.1222 -0.0921
    1W        W66536   4.163  19.716   7.765 -0.0236  0.2078  0.0766
    1W        W66537  26.558  20.126   1.962  0.1265  0.2413 -0.2641
    1W        W66538  19.293  10.920   0.014  0.1116  0.1351  0.1068
    1W        W66539  11.626   6.108   0.267  0.1488  0.2240  0.2448
    1W        W66540  15.168  27.408   8.032 -0.0404 -0.0015 -0.1667
    1W        W66541  11.097  11.656   0.997  0.2548 -0.1178  0.0014
    1W        W66542  26.232  25.290   2.355 -0.2599 -0.0999 -0.0651
    1W        W66543   6.950  15.913   1.695 -0.2264 -0.0731  0.0936
    1W        W66544  22.461  16.635   6.959 -0.1208 -0.2519  0.0937
    1W        W66545   0.611  27.713   8.048  0.0016  0.1655  0.0189
    1W        W66546  21.574  23.214   2.061  0.0805  0.1334 -0.1314
    1W        W66547  10.433  16.360   8.365  0.1757  0.0941 -0.0449
    1W        W66548  10.035  19.644   5.991 -0.1818  0.1070  0.1145
    1W        W66549  14.264  14.399   7.369 -0.2325  0.2399 -0.1837
    1W        W66550   8.367   9.236   2.594 -0.2667  0.2817  0.1690
    1W        W66551  18.965  11.468   8.128  0.3482  0.1922  0.1582
    1W        W66552   6.828  12.578   8.014  0.1115  0.0107 -0.3072
    1W        W66553  25.835  21.446   8.493 -0.2553  0.2661 -0.1898
    1W        W66554  27.491   0.600   9.139 -0.1463 -0.0507  0.1694
    1W        W66555  13.478  28.552   8.566 -0.1475  0.1947 -0.0855
    1W        W66556  11.814   9.135   7.922  0.2357 -0.0091 -0.3749
    1W        W66557   6.741   4.063   3.667  0.0399  0.3109 -0.3325
    1W        W66558   3.771  16.335   6.452 -0.0552  0.0981  0.0017
    1W        W66559  12.397  23.006   1.933 -0.1531 -0.1173 -0.1472
    1W        W66560   5.486   0.603   7.679  0.0139  0.4032 -0.3348
    1W        W66561  30.320   0.054   1.795  0.3775 -0.0619  0.0404
    1W        W66562  17.616   3.669   6.228  0.1153 -0.1676  0.1863
    1W        W66563  29.522  24.005   0.572  0.2086  0.2635  0.2480
    1W        W66564  28.319   1.239   2.473 -0.0326  0.0305 -0.0097
    1W        W66565  22.705   6.601   8.190  0.0806  0.1608  0.3647
    1W        W66566   9.062   6.204   2.941  0.0134 -0.1136 -0.2635
    1W        W66567   2.046  11.451   6.647 -0.0613 -0.1868  0.3028
    1W        W66568   6.846   0.459   8.866  0.2714  0.1163  0.1359
    1W        W66569   8.249   2.143   2.790  0.3090  0.1125 -0.0804
    1W        W66570  22.565  13.884   7.057 -0.3854 -0.0028  0.0516
    1W        W66571  13.967   6.791   2.352 -0.2181  0.0076  0.0359
    1W        W66572  26.216  17.539   9.268 -0.0549  0.0596 -0.1128
    1W        W66573   7.657  29.326   0.531 -0.1076 -0.4453 -0.1440
    1W        W66574  22.646  30.110   1.761  0.0226 -0.0622 -0.1717
    1W        W66575  10.991  11.509   7.028 -0.1772  0.0916  0.0767
    1W        W66576  10.225  23.223   7.468 -0.2047 -0.2393 -0.2694
    1W        W66577  27.682   5.045   0.468  0.0222 -0.3763  0.1777
    1W        W66578  10.525   9.249   7.116  0.3105 -0.0142 -0.2525
    1W        W66579   5.136   2.831   1.808  0.3513 -0.0681  0.4049
    1W        W66580  27.290  24.419   2.539 -0.3028  0.1949 -0.3886
    1W        W66581   4.785  19.145   7.440  0.0662 -0.1488  0.1234
    1W        W66582  15.768  22.408   7.443 -0.5573  0.2729 -0.2433
    1W        W66583  20.145   4.234   6.557  0.0282 -0.1874 -0.2639
    1W        W66584   9.673  29.539   0.635  0.0818  0.1331 -0.3077
    1W        W66585  14.749  20.657   7.484  0.3343  0.4053  0.1488
    1W        W66586  27.333  30.207   9.181 -0.2455 -0.2349 -0.2089
    1W        W66587  19.772  28.255   7.790  0.2006  0.0277  0.1058
    1W        W66588  11.223  27.284   8.207  0.3576  0.1752 -0.1470
    1W        W66589  10.575  28.843   2.109 -0.1523  0.1662 -0.2345
    1W        W66590  16.155  22.828   0.428 -0.0196  0.0826  0.0650
    1W        W66591   2.488   3.789   1.346  0.2174 -0.2058 -0.0685
    1W        W66592  23.321  20.849   7.189  0.1805 -0.2811 -0.3082
    1W        W66593   7.930  12.405   8.365  0.2229 -0.0927 -0.0860
    1W        W66594   0.116   1.491   2.597  0.0403 -0.3299  0.0561
    1W        W66595  26.523  26.622   2.731  0.2640 -0.3131  0.1885
    1W        W66596  19.566  29.084   8.247  0.0320 -0.0428  0.0440
    1W        W66597  15.736  24.434   8.510  0.0187 -0.1355 -0.0731
    1W        W66598  11.832  26.856   7.970 -0.3400  0.0757  0.0465
    1W        W66599  11.563  14.744   0.149 -0.3140  0.0403  0.2813
    1W        W66600  18.001  14.560   6.598 -0.0357 -0.0317 -0.1759
    1W        W66601   3.044   6.742   8.707  0.0021  0.0551  0.0722
    1W        W66602   0.206   6.003   0.204 -0.0909  0.2649 -0.1486
    1W        W66603   3.439  26.466   8.361  0.0388 -0.2492  0.2115
    1W        W66604  25.981  14.139   7.058  0.4944 -0.1827  0.1779
    1W        W66605  23.613  11.328   8.867  0.4048 -0.1317 -0.0199
    1W        W66606  17.566  14.072   8.077 -0.0867  0.2459  0.2486
    1W        W66607  14.776  23.866   6.557  0.1996 -0.0634  0.2180
    1W        W66608   7.075  20.801   1.087 -0.1421  0.2441  0.0779
    1W        W66609  14.383   7.593   1.861  0.0811 -0.1093  0.0410
    1W        W66610  21.029  24.785   7.245 -0.2485 -0.1586  0.2377
    1W        W66611  26.026   9.446   8.670  0.2453 -0.4106 -0.1589
    1W        W66612  18.862  17.122   6.314  0.3972 -0.1635  0.2338
    1W        W66613  28.397   2.726   9.145  0.3060  0.3461  0.0000
    1W        W66614   3.549   0.813   3.375  0.0055 -0.2133 -0.0027
    1W        W66615  13.394  24.942   6.313 -0.1608 -0.0255  0.0858
    1W        W66616  18.170   2.511   1.929  0.1032 -0.3081  0.1073
    1W        W66617   3.942   8.696   0.228 -0.0393  0.0396 -0.3045
    1W        W66618  26.842  29.887   3.404 -0.0325 -0.0310  0.0066
    1W        W66619   0.511  25.285   7.823 -0.0639  0.0035  0.1047
    1W        W66620   9.215  28.291   1.729  0.1140 -0.0279  0.2387
    1W        W66621  26.033  11.985   0.958 -0.0548  0.3009  0.0857
    1W        W66622  13.837  26.192   8.915 -0.2068  0.3981  0.2074
    1W        W66623   5.764  21.750   8.420 -0.3058  0.0351  0.0319
    1W        W66624  10.881  17.526   5.973  0.1715 -0.0617 -0.0381
    1W        W66625  16.073  13.500   0.990  0.0268  0.2711 -0.1603
    1W        W66626  28.482  10.657   7.883  0.2696 -0.0224  0.0142
    1W        W66627  23.151  25.710   0.610 -0.0590 -0.4160  0.0624
    1W        W66628  18.386  11.534   5.733 -0.2879 -0.2313  0.0252
    1W        W66629   9.211  16.628   1.154 -0.1930 -0.3066 -0.0017
    1W        W66630   2.289  28.678   0.214  0.1331 -0.1192  0.2064
    1W        W66631   0.242  20.620   0.825 -0.1359 -0.0740 -0.0407
    1W        W66632   7.482   4.251   1.222  0.0733  0.2606 -0.2066
    1W        W66633   6.851   4.755   0.496  0.0670 -0.3477  0.1731
    1W        W66634   4.450  23.629   0.635  0.2763  0.0305 -0.0335
    1W        W66635  29.934  13.308   6.407 -0.0008 -0.0365  0.0008
    1W        W66636   9.572  13.202   0.310 -0.0661  0.0585  0.0624
    1W        W66637  18.199  22.158   7.909  0.2751 -0.1122  0.1610
    1W        W66638   9.733  24.153   7.294  0.0466  0.1367 -0.2314
    1W        W66639  14.579   8.490   1.256  0.0809  0.1555 -0.0913
    1W        W66640   2.097  19.838   1.911 -0.1945  0.1289  0.0560
    1W        W66641  29.429  17.705   1.013  0.1149 -0.0427 -0.1133
    1W        W66642   8.423  12.042   9.216  0.1638 -0.1786 -0.2210
    1W        W66643  14.515  17.465   7.469 -0.2705  0.0183  0.1548
    1W        W66644   8.477   1.719   1.089  0.2085 -0.1655 -0.0884
    1W        W66645  15.239  23.396   2.600 -0.0522 -0.0907 -0.2267
    1W        W66646  13.902   8.311   8.414 -0.1737  0.3080 -0.0124
    1W        W66647  17.761  16.397   0.304 -0.3304  0.1097  0.0247
    1W        W66648  17.489  22.663   0.329  0.1820 -0.2586  0.2122
    1W        W66649  27.337   3.019   1.689 -0.1047  0.2333  0.3794
    1W        W66650  20.515  24.649   1.335  0.0992  0.0243 -0.1089
    1W        W66651  24.461  28.834   1.869  0.4212 -0.2015 -0.1601
    1W        W66652  22.946  24.060   6.707  0.0866  0.0445  0.0798
    1W        W66653  24.626   2.782   2.839 -0.4566 -0.0343 -0.1828
    1W        W66654  13.253  17.343   1.420 -0.1782 -0.2517 -0.1575
    1W        W66655   9.496  28.697   1.520  0.1339  0.3240  0.0218
    1W        W66656  10.815  23.569   6.644 -0.3833 -0.1575 -0.0943
    1W        W66657   9.678   9.931   0.429  0.0719 -0.0311  0.1700
    1W        W66658   9.061  12.207   0.896  0.3681 -0.1068  0.0351
    1W        W66659  28.442  11.389   9.033 -0.1018 -0.0624  0.1411
    1W        W66660   5.848   5.701   1.676 -0.2490 -0.1933 -0.0142
    1W        W66661  22.416   7.793   0.136 -0.1703  0.0327 -0.0669
    1W        W66662  23.056   9.035   0.229 -0.1844 -0.0257 -0.1277
    1W        W66663  18.982   0.228   0.135 -0.0359 -0.0719  0.0097
    1W        W66664  23.817   8.317   1.523 -0.0711 -0.2803 -0.1310
    1W        W66665  18.781   2.705   6.517 -0.0410 -0.0367 -0.3046
    1W        W66666  12.274  18.472   2.344 -0.0418  0.0644 -0.1730
    1W        W66667   3.983  14.988   0.666 -0.3709  0.2005  0.1253
    1W        W66668  28.988  23.594   0.824 -0.0231  0.2011 -0.0926
    1W        W66669  16.689  25.475   2.600 -0.5536 -0.1243  0.1731
    1W        W66670  11.366  19.619   8.502  0.1226  0.0164 -0.0267
    1W        W66671  21.813   3.115   6.661  0.0230  0.1692  0.0417
    1W        W66672  17.059  25.052   1.727  0.1466 -0.0516 -0.4446
    1W        W66673  25.618  24.013   7.788 -0.0009  0.0521  0.1642
    1W        W66674   8.411   8.359   1.606 -0.0065  0.1077  0.0959
    1W        W66675  20.493   1.208   8.258 -0.0761 -0.2478 -0.1926
    1W        W66676   5.915  21.274   8.369 -0.3671  0.3447  0.0577
    1W        W66677  25.182  29.148   6.938  0.0807  0.3105 -0.2612
    1W        W66678  21.934   9.913   8.052  0.1623  0.3011 -0.0942
    1W        W66679  14.172   5.583   1.123 -0.3029  0.3731 -0.1671
    1W        W66680  21.572  14.109   8.637 -0.1468 -0.3669 -0.0410
    1W        W66681   3.846  27.675   2.253  0.0667 -0.0140 -0.0067
    1W        W66682  11.714  15.837   6.986 -0.1295  0.1159 -0.1066
    1W        W66683  29.122   8.555   9.207 -0.1178 -0.0328  0.0723
    1W        W66684  21.674  19.724   1.376 -0.1529 -0.0861 -0.0570
    1W        W66685  19.958   4.500   0.953  0.0737 -0.0690 -0.1844
    1W        W66686   4.037  18.317   5.765  0.1220 -0.0083  0.0444
    1W        W66687  19.561   4.934   2.044 -0.0751 -0.0997  0.3361
    1W        W66688  10.661  17.852   0.198  0.1760 -0.0584 -0.2328
    1W        W66689  24.297   1.420   0.875 -0.1584  0.1693  0.1295
    1W        W66690  23.598  15.874   7.528  0.0956 -0.1841 -0.1802
    1W        W66691  25.633   0.289   3.880  0.0873  0.2562 -0.0102
    1W        W66692   2.875   5.593   7.226 -0.2443  0.0500  0.0191
    1W        W66693  12.900  17.377   8.908 -0.0970  0.0353  0.2262
    1W        W66694   3.824  28.861   3.240  0.0463  0.1989  0.1473
    1W        W66695  28.959  15.662   6.973  0.5499  0.0294  0.0349
    1W        W66696  24.322   1.641   2.715  0.0795 -0.0237  0.0767
    1W        W66697   9.018  26.017   8.623  0.1666 -0.2113  0.1198
    1W        W66698  22.938  19.179   1.787 -0.1757 -0.1376 -0.1970
    1W        W66699  10.962  28.281   7.434 -0.2409  0.0854  0.1361
    1W        W66700   1.825  29.644   3.808 -0.2351  0.1654 -0.1140
    1W        W66701   2.948  19.066   0.152 -0.0222 -0.2085 -0.2487
    1W        W66702   8.031   2.604   2.825  0.0876  0.2037  0.0712
    1W        W66703  21.206  23.372   5.986  0.1234 -0.4843 -0.0770
    1W        W66704  23.459   2.938   7.359  0.0345  0.1244  0.1829
    1W        W66705   1.385  13.107   7.271  0.1061 -0.0922  0.0601
    1W        W66706  20.600   6.351   2.718 -0.0400  0.1151 -0.1188
    1W        W66707  24.655  13.944   9.263  0.0057  0.2337  0.2379
    1W        W66708  25.577   1.166   8.660 -0.1199  0.0133  0.1352
    1W        W66709  15.436   4.996   8.119 -0.0104 -0.1563 -0.0228
    1W        W66710  24.919  15.567   8.938  0.2814  0.1361 -0.0298
    1W        W66711  10.184  13.225   2.323  0.0422 -0.2806  0.0623
    1W        W66712   9.184  22.056   6.172  0.1254  0.0911  0.0229
    1W        W66713  22.274  27.708   8.892  0.2431 -0.2383 -0.0840
    1W        W66714  17.876  11.027   0.203 -0.5327 -0.0258  0.1743
    1W        W66715  11.660  24.474   0.456 -0.3932 -0.1001 -0.1429
    1W        W66716   6.316   5.567   1.878  0.2939 -0.1556  0.2006
    1W        W66717  17.215  23.778   1.725 -0.1190 -0.3303 -0.0159
    1W        W66718  20.663  13.312   9.263  0.0763 -0.0663  0.0496
    1W        W66719  23.196   6.944   0.189  0.2057 -0.2852 -0.2724
    1W        W66720  20.732  10.715   2.571 -0.0785  0.0334  0.1500
    1W        W66721  16.991  11.165   1.878 -0.0711 -0.0487 -0.1135
    1W        W66722  10.351   3.847   6.760 -0.5538  0.0884 -0.0773
    1W        W66723  29.037   1.437   0.360 -0.0311  0.0189  0.1994
    1W        W66724   6.262  29.086   7.927  0.1663  0.1184 -0.2698
    1W        W66725  21.528   5.247   2.399 -0.1251 -0.0989 -0.0651
    1W        W66726  24.241  25.130   7.526 -0.0618  0.0257 -0.1035
    1W        W66727  24.221   4.546   2.140  0.3913 -0.3128 -0.1510
    1W        W66728  15.980  15.865   7.096 -0.0185 -0.1885 -0.1383
    1W        W66729  12.870  18.936   1.338 -0.0461  0.1046 -0.2776
    1W        W66730  29.119  13.477   1.264 -0.0384  0.0459  0.0865
    1W        W66731   6.820  17.344   7.076 -0.1292  0.0534  0.0868
    1W        W66732  17.909   6.660   1.529 -0.4391 -0.0294  0.0227
    1W        W66733  11.732   6.360   1.494  0.0320  0.0603  0.1149
    1W        W66734  18.417  20.879   6.990  0.2378 -0.0924 -0.0606
    1W        W66735   7.204  16.339   6.814 -0.1908 -0.0012 -0.2317
    1W        W66736  22.158  29.108   1.673  0.1870 -0.3102  0.2069
    1W        W66737   5.921  13.601   8.875  0.3172  0.2335  0.1223
    1W        W66738  17.668  27.010   7.854  0.1845  0.3319 -0.0899
    1W        W66739  14.891   5.781   6.991  0.2476 -0.0571  0.0452
    1W        W66740   0.713  20.093   0.463 -0.2794  0.1499 -0.3879
    1W        W66741  17.968  13.981   6.680 -0.0973  0.0395  0.2715
    1W        W66742  15.536  14.233   2.209  0.1501 -0.0453 -0.2739
    1W        W66743  10.793  11.271   1.945 -0.0995 -0.1896  0.1138
    1W        W66744  20.666   3.534   7.680 -0.2676 -0.0750  0.0324
    1W        W66745  11.465  29.753   8.016 -0.0760 -0.2346  0.1858
    1W        W66746  16.993   5.990   7.058  0.4344  0.0614  0.2439
    1W        W66747   0.197  20.220   0.461  0.1340 -0.0379 -0.3512
    1W        W66748  30.269   0.592   2.907  0.0065  0.2650  0.2989
    1W        W66749  21.632   2.671   3.358  0.1498 -0.2557 -0.1631
    1W        W66750  16.920  12.666   1.721 -0.3144  0.0441 -0.1879
    1W        W66751  21.127  15.243   5.599  0.2726 -0.2185  0.0300
    1W        W66752  23.120  15.631   1.667  0.2493 -0.3914  0.0953
    1W        W66753  30.144  18.562   1.761 -0.1565 -0.1778 -0.3200
    1W        W66754   9.827  15.530   7.525  0.0821 -0.1890 -0.0629
    1W        W66755  10.077  24.951   9.256  0.1143  0.1549  0.1930
    1W        W66756   5.467  13.656   8.683 -0.2340 -0.2457 -0.1094
    1W        W66757   0.684  16.246   8.160  0.2392 -0.1333  0.0676
    1W        W66758  22.343  26.713   8.616  0.1184 -0.0471  0.1251
    1W        W66759   2.185   0.306   2.843  0.0184 -0.3585 -0.0408
    1W        W66760   5.177  29.094   1.085 -0.2852  0.0362  0.0361
    1W        W66761   9.475  10.760   5.996  0.0016  0.1123  0.0762
    1W        W66762   9.618  13.831   7.212  0.1843 -0.2967 -0.0322
    1W        W66763  30.182  24.570   8.532  0.1474 -0.0195 -0.0482
    1W        W66764  29.143  16.478   8.776  0.1403  0.2473 -0.0737
    1W        W66765   1.551   4.971   6.899 -0.0464  0.1649  0.2767
    1W        W66766  20.983  11.337   6.827 -0.1531 -0.1691  0.1237
    1W        W66767  13.306   4.493   7.798  0.1388  0.1519 -0.3051
    1W        W66768   8.044  28.916   8.891  0.0182 -0.2246  0.0273
    1W        W66769  21.853  23.018   1.164  0.1991  0.0533 -0.1551
    1W        W66770  25.603  22.847   0.755 -0.2385 -0.0731  0.4623
    1W        W66771  12.962   9.600   6.980 -0.2209  0.1271  0.4436
    1W        W66772  22.365  14.775   7.934 -0.0009 -0.1869 -0.1319
    1W        W66773   0.794  20.832   0.783 -0.0361 -0.0608  0.0238
    1W        W66774  27.670  23.698   6.759 -0.1641  0.2909  0.0890
    1W        W66775   9.858  14.466   0.908  0.0135  0.0413 -0.0290
    1W        W66776   5.083  12.395   6.897  0.0556 -0.0584 -0.1196
    1W        W66777  23.729  12.519   0.718 -0.0087  0.0625  0.0037
    1W        W66778   7.942  22.147   0.097 -0.0175 -0.3127 -0.0834
    1W        W66779   9.326   9.055   0.313  0.0368 -0.0525 -0.0835
    1W        W66780   3.874  18.467   6.685 -0.1169 -0.2816 -0.2014
    1W        W66781  16.737   7.434   1.333 -0.0819 -0.0837 -0.0378
    1W        W66782  19.379  25.868   1.871 -0.1402  0.0542 -0.0060
    1W        W66783  18.639  17.915   0.908  0.0329  0.2760 -0.2067
    1W        W66784  20.849   2.656   0.819 -0.1646 -0.0370  0.4158
    1W        W66785   3.459   6.173   0.304 -0.0718 -0.0651  0.0121
    1W        W66786   0.863   3.770   0.294 -0.1536 -0.1536 -0.0601
    1W        W66787  16.456  16.505   0.631  0.0759  0.1743 -0.2793
    1W        W66788   8.248   3.738   2.900 -0.1174  0.1725  0.1311
    1W        W66789  24.282   8.391   0.089  0.2677  0.0029 -0.0436
    1W        W66790  14.992   3.032   2.132 -0.0249  0.0277  0.0171
    1W        W66791   9.135   5.388   0.554 -0.2758 -0.0734  0.2698
    1W        W66792   3.387  23.058   0.065 -0.0079 -0.3023  0.1885
    1W        W66793   5.748  17.800   8.785  0.0853 -0.1255  0.0481
    1W        W66794  14.285   2.423   2.643  0.1804 -0.0000 -0.1458
    1W        W66795  19.213  13.024   2.335  0.0587 -0.2668  0.2565
    1W        W66796  19.169  25.544   0.885 -0.3646 -0.0498 -0.0788
    1W        W66797  14.483   1.045   1.310  0.0960 -0.0216  0.2096
    1W        W66798  14.662  22.350   8.147  0.3933 -0.1501 -0.1216
    1W        W66799  10.636  27.947   2.180  0.1253 -0.1082 -0.1012
    1W        W66800   4.948   5.360   1.980  0.2646  0.0408  0.1066
    1W        W66801  28.442  24.237   0.816 -0.2841  0.0784 -0.1089
    1W        W66802  14.898   1.402   8.830 -0.2782  0.0291 -0.1942
    1W        W66803   7.393  29.001   0.824 -0.0234  0.2300  0.0449
    1W        W66804  22.088  29.690   7.326  0.0597  0.7294 -0.0053
    1W        W66805  16.378  14.454   2.363 -0.2242 -0.2193 -0.3597
    1W        W66806  18.362   4.722   1.622 -0.0562  0.1213 -0.0140
    1W        W66807   9.768   1.882   9.230  0.1710 -0.1420 -0.0323
    1W        W66808  15.941   9.815   2.261 -0.0918  0.0761 -0.0155
    1W        W66809  28.373   4.237   2.721  0.3509 -0.0159 -0.0123
    1W        W66810  21.377  24.875   0.029 -0.0846 -0.4184  0.2919
    1W        W66811  16.518  17.513   8.033 -0.0561 -0.1618  0.0638
    1W        W66812   1.400  15.955   8.564 -0.0840 -0.1075  0.1549
    1W        W66813  17.656  16.579   1.641  0.0757 -0.1020  0.0461
    1W        W66814  25.962   3.010   2.137  0.0423  0.0415 -0.1809
    1W        W66815   7.550  12.684   6.869 -0.1278 -0.2973 -0.0757
    1W        W66816  24.885  18.656   7.221 -0.0328  0.2402  0.0118
    1W        W66817  17.671  29.870   0.251 -0.3626  0.0368  0.1317
    1W        W66818   2.873  26.769   0.940  0.1392 -0.3467 -0.4071
    1W        W66819  20.501  15.321   1.470  0.1078  0.0090  0.1723
    1W        W66820   2.419  29.488   1.714 -0.3064  0.1469 -0.1571
    1W        W66821  23.208   8.689   6.807 -0.0630 -0.2080 -0.1336
    1W        W66822  12.408   3.720   8.571 -0.0169 -0.1350  0.0007
    1W        W66823  20.607  25.373   8.100  0.0842  0.1891  0.0776
    1W        W66824  21.081  20.533   1.420 -0.1370  0.2732 -0.2744
    1W        W66825   3.592  24.897   6.518  0.1143 -0.0615 -0.0250
    1W        W66826  13.803  11.156   1.690 -0.0055 -0.1002  0.3330
    1W        W66827  23.227   7.562   1.174  0.2371 -0.0101 -0.1768
    1W        W66828  29.883  23.374   2.505  0.5243  0.3579 -0.4316
    1W        W66829  13.064   8.672   3.437  0.2629 -0.0432 -0.1973
    1W        W66830  24.260   1.052   1.187  0.3951 -0.4893  0.0431
    1W        W66831   7.931   8.270   1.387 -0.0254 -0.0417 -0.1186
    1W        W66832  15.571   4.869   0.336  0.1470 -0.0759 -0.0971
    1W        W66833   4.925   9.903   6.352 -0.1843  0.1734 -0.0080
    1W        W66834  20.136  23.462   6.710  0.1712 -0.0921 -0.0006
    1W        W66835  28.646   5.029   8.380  0.2226 -0.0093 -0.0897
    1W        W66836  13.181   0.269   0.671 -0.1389 -0.2410 -0.2829
    1W        W66837  22.169   7.675   2.141 -0.0719 -0.0329 -0.2108
    1W        W66838  12.366  16.542   7.319 -0.1651  0.0363 -0.1856
    1W        W66839  30.187   4.075   0.309  0.0274  0.0847 -0.0959
    1W        W66840  11.234   9.564   2.692 -0.1360  0.1579  0.1111
    1W        W66841   2.062   3.855   8.482  0.0056  0.2398  0.0339
    1W        W66842   5.217  25.998   2.050 -0.2444  0.2342 -0.1102
    1W        W66843  29.118  10.371   8.938 -0.2327  0.2090  0.0463
    1W        W66844  25.312  26.111   8.522 -0.0348  0.0277 -0.3327
    1W        W66845  11.214   4.761   9.000 -0.0374 -0.0676 -0.0786
    1W        W66846  26.922  21.207   8.640 -0.3661 -0.0334 -0.0218
    1W        W66847  20.868  29.532   2.613  0.1195  0.0034  0.0362
    1W        W66848   0.613  17.069   8.501  0.2064 -0.2557  0.0481
    1W        W66849  27.748  12.872   7.408 -0.2780  0.0357  0.0906
    1W        W66850  16.090  14.058   1.094  0.2066  0.0742  0.3640
    1W        W66851  11.570   0.763   8.270 -0.0707 -0.4204 -0.2364
    1W        W66852  18.571  13.709   1.329  0.2240 -0.0653 -0.2498
    1W        W66853  26.933   8.926   0.334 -0.0542 -0.1641  0.3336
    1W        W66854   7.846  28.447   9.026  0.0718  0.0400  0.1207
    1W        W66855  27.931  29.155   8.306 -0.1774  0.1664 -0.0237
    1W        W66856  14.917  22.571   1.824 -0.3221  0.2348 -0.1202
    1W        W66857  11.770  25.085   6.694 -0.1046 -0.2276 -0.0921
    1W        W66858  27.507   2.004   0.345 -0.0707  0.1711 -0.3588
    1W        W66859   5.548  15.008   1.391 -0.3257  0.0603  0.2152
    1W        W66860  17.301  14.851   8.519 -0.1634 -0.2495 -0.1029
    1W        W66861   3.891   6.276   8.675 -0.0762  0.1761 -0.0069
    1W        W66862  21.674  27.809   8.099 -0.3736  0.1441 -0.3796
    1W        W66863  11.985  14.572   2.117 -0.0508 -0.0370  0.1389
    1W        W66864   3.845   0.855   2.058 -0.2035 -0.2207 -0.1331
    1W        W66865  28.599  19.980   7.985  0.1521  0.0668 -0.1430
    1W        W66866  12.715  28.733   7.387 -0.0039  0.0015 -0.1427
    1W        W66867  25.448   6.681   7.912 -0.3115 -0.0706  0.2092
    1W        W66868  14.431   3.082   7.953 -0.0880 -0.2897 -0.1178
    1W        W66869  14.343  24.085   1.479  0.2526 -0.0498  0.0107
    1W        W66870  27.528  10.656   8.375  0.1905 -0.1561  0.0258
    1W        W66871  25.248   3.827   3.036 -0.2158 -0.1143  0.0334
    1W        W66872   2.756  20.554   9.131  0.2026 -0.2668  0.0231
    1W        W66873   9.317  18.961   7.774 -0.0268 -0.0206 -0.0912
    1W        W66874  27.733  26.390   1.529 -0.0176  0.2266 -0.0699
    1W        W66875   8.085  29.322   0.228 -0.3094 -0.0846  0.1605
    1W        W66876  10.836  25.929   8.556 -0.5538 -0.0164  0.0678
    1W        W66877  28.098  25.194   0.821  0.1948  0.0852  0.0314
    1W        W66878   8.938  18.888   2.583 -0.0261  0.1132 -0.2070
    1W        W66879   1.142  10.013   0.189 -0.2134 -0.0596  0.0837
    1W        W66880   8.257   9.578   2.205 -0.0809 -0.2538  0.0961
    1W        W66881  24.670   8.014   8.541  0.0470  0.1304  0.1447
    1W        W66882   9.260  13.151   2.935 -0.0146 -0.1984 -0.1775
    1W        W66883  12.231  25.743   6.705  0.0521 -0.1467 -0.0548
    1W        W66884  24.642  29.008   6.688  0.0623 -0.1684  0.0606
    1W        W66885   1.146   9.031   7.289  0.1959  0.1054  0.0217
    1W        W66886   4.359  22.653   1.163 -0.1126  0.0889 -0.1071
    1W        W66887   0.223  24.847   1.841  0.0625  0.2995  0.0190
    1W        W66888   8.798  28.554   0.136 -0.1548  0.3101 -0.0615
    1W        W66889  11.561  23.974   1.639 -0.3569 -0.0228 -0.1158
    1W        W66890   0.580  28.979   3.261  0.0061 -0.1215  0.0566
    1W        W66891  23.673  23.515   1.961 -0.1131 -0.0067 -0.3120
    1W        W66892  16.322  19.909   6.252 -0.0509  0.1969  0.3445
    1W        W66893  15.813   4.612   1.375 -0.0152 -0.0753 -0.0180
    1W        W66894   0.323  28.990   8.324  0.2521  0.0420 -0.0029
    1W        W66895  22.351  19.432   6.478 -0.3972  0.0427 -0.0466
    1W        W66896  17.563   5.496   5.822  0.3725  0.1854  0.1429
    1W        W66897  27.992  28.623   8.845 -0.0538 -0.1130 -0.1621
    1W        W66898   6.716  18.281   0.000 -0.1780 -0.0235 -0.0379
    1W        W66899   2.009   3.013   8.864  0.0328 -0.0162  0.1145
    1W        W66900   1.129   6.657   2.530  0.2488  0.1549 -0.1512
    1W        W66901  13.263  15.681   8.035 -0.1096  0.0765 -0.1134
    1W        W66902  11.862   3.851   1.591 -0.0621 -0.1364 -0.0417
    1W        W66903   7.188   5.567   9.236 -0.2065 -0.0160 -0.0779
    1W        W66904  21.196  26.148   7.059 -0.1016  0.0627 -0.1874
    1W        W66905  15.254   0.466   7.001  0.1174  0.4004  0.2802
    1W        W66906   1.240   2.686   7.439  0.0997  0.1202  0.2343
    1W        W66907  14.942   7.730   6.781 -0.7017 -0.0499  0.1244
    1W        W66908  26.785  17.924   7.494  0.0926 -0.2028  0.2198
    1W        W66909  29.640  23.089   1.809 -0.0548 -0.0366 -0.2197
    1W        W66910   4.538  27.977   0.754  0.0440  0.1415 -0.0668
    1W        W66911  19.064  29.374   2.424 -0.2360  0.2858  0.2745
    1W        W66912  22.297  18.141   0.648  0.0798 -0.1024  0.2062
    1W        W66913  28.457  26.744   3.124 -0.0899 -0.0030 -0.0641
    1W        W66914  17.054   3.321   0.989  0.2975 -0.5456  0.1062
    1W        W66915   0.049   0.440   2.090 -0.1767 -0.1250 -0.0233
    1W        W66916   3.009  23.694   0.598 -0.1248 -0.0414  0.1255
    1W        W66917  12.867   4.864   6.147 -0.1669  0.1261 -0.1441
    1W        W66918  12.192  12.214   8.459 -0.4012 -0.0511  0.1820
    1W        W66919  14.737  18.533   6.842 -0.1683 -0.1198  0.1781
    1W        W66920   3.734   5.589   1.772 -0.0077  0.0431  0.0501
    1W        W66921   7.863  18.303   0.050 -0.0031  0.0460 -0.0101
    1W        W66922  26.431   4.666   3.489  0.0243 -0.1207  0.1958
    1W        W66923   3.529   3.744   1.823  0.3757 -0.4407 -0.2194
    1W        W66924  28.218  17.616   7.015  0.2657  0.0733 -0.0519
    1W        W66925  30.120   7.887   0.332  0.0722 -0.0341  0.0306
    1W        W66926  11.168  19.535   1.781  0.2105  0.1779  0.1205
    1W        W66927  16.874   9.958   0.352  0.0261 -0.0576  0.2208
    1W        W66928   1.369  17.789   8.011 -0.4836  0.0705  0.0029
    1W        W66929   2.282  26.122   1.360 -0.1020  0.0162 -0.1002
    1W        W66930  12.360  12.613   3.644  0.0325  0.0795 -0.0260
    1W        W66931  18.267   6.560   5.808  0.1769 -0.3328  0.0262
    1W        W66932  17.451  10.204   8.298  0.2431 -0.5290 -0.0056
    1W        W66933  12.463   4.000   1.525 -0.2078  0.0638  0.3690
    1W        W66934  12.205   9.260   8.229  0.4753 -0.0115  0.3782
    1W        W66935  29.453  13.195   9.236  0.1412  0.0552  0.0392
    1W        W66936  26.086   1.452   0.689 -0.2044  0.0538  0.5019
    1W        W66937  15.189  29.125   6.958 -0.3113  0.2144 -0.0139
    1W        W66938  19.372  14.402   2.232  0.5959 -0.1290 -0.1487
    1W        W66939   1.744   5.636   7.340 -0.4358 -0.3804  0.0157
    1W        W66940  25.626   7.248   8.050  0.1487  0.1430 -0.2509
    1W        W66941  23.343   8.585   7.710  0.1237 -0.2426 -0.2911
    1W        W66942   4.523  26.620   3.331 -0.0778  0.2171 -0.5093
    1W        W66943  16.589   1.685   2.516 -0.1482  0.2004  0.3449
    1W        W66944  20.313  27.806   7.238  0.1775  0.2914  0.1444
    1W        W66945  12.679  25.310   2.068 -0.3702 -0.2408  0.2421
    1W        W66946  20.550   9.355   7.684  0.0046 -0.0553  0.0320
    1W        W66947  17.387  19.558   2.191  0.0177  0.2818  0.2968
    1W        W66948  24.399   3.263   2.434 -0.1883 -0.2500 -0.1335
    1W        W66949  27.569  27.516   8.659  0.1082  0.1918  0.3291
    1W        W66950  28.017  23.182   7.097  0.1636  0.2441  0.1416
    1W        W66951   5.371  21.976   7.219 -0.0926 -0.2181  0.1288
    1W        W66952  21.200  10.700   1.807  0.3548 -0.6017  0.3988
    1W        W66953   4.758   5.076   7.205 -0.1129 -0.1261 -0.0025
    1W        W66954   7.300  14.282   7.588 -0.0982  0.0291 -0.0758
    1W        W66955  13.739  13.060   3.040  0.1596 -0.0576  0.1263
    1W        W66956  10.287  22.120   1.270  0.3752 -0.1623  0.0496
    1W        W66957   5.522  13.258   8.275  0.0473  0.1886 -0.1560
    1W        W66958  21.604  29.647   7.061 -0.3386  0.0106 -0.0639
    1W        W66959  21.526  18.666   7.445  0.1873  0.4847  0.0929
    1W        W66960   5.427   2.955   6.705  0.1233  0.1023 -0.0827
    1W        W66961  20.887  15.486   8.859 -0.0681 -0.4331  0.0745
    1W        W66962  27.596   8.665   0.136 -0.1526  0.1286  0.1454
    1W        W66963  25.488  14.912   8.511  0.1059 -0.0110  0.0067
    1W        W66964   0.056  29.819   8.393  0.1054 -0.1114  0.0403
    1W        W66965   9.074  14.599   6.894 -0.3414 -0.0647  0.3163
    1W        W66966   2.186  13.390   0.690 -0.1859  0.1616 -0.0232
    1W        W66967  19.635   8.461   7.755  0.0416 -0.0493 -0.1842
    1W        W66968   7.578   3.375   7.799  0.0579  0.0751 -0.0895
    1W        W66969   4.581  25.548   7.373 -0.3465  0.1787  0.1731
    1W        W66970  19.531   9.686   8.235  0.0033  0.2178 -0.1449
    1W        W66971  13.344  28.389   1.464 -0.0392 -0.2965  0.2347
    1W        W66972  17.912   9.826   7.871 -0.0110 -0.0894 -0.0539
    1W        W66973  19.225  14.892   9.201 -0.1000 -0.2315 -0.2778
    1W        W66974  13.228  20.086   6.424  0.2041  0.3605  0.1371
    1W        W66975  12.134  14.611   0.728  0.3970 -0.2139 -0.0362
    1W        W66976  20.587   2.900   2.615  0.0306 -0.4380  0.1017
    1W        W66977  29.247  21.370   1.445  0.0527 -0.2591  0.0871
    1W        W66978   1.471  18.569   8.435 -0.0078  0.6035  0.1577
    1W        W66979  10.167  11.909   7.406 -0.0244 -0.0201  0.3275
    1W        W66980  17.685   8.132   1.705  0.2641 -0.4216 -0.2592
    1W        W66981  10.808  30.330   2.167  0.0178 -0.2727 -0.2347
    1W        W66982   2.161  26.621   1.359  0.0388  0.1767  0.1809
    1W        W66983   2.781  23.019   9.116 -0.1971 -0.1874 -0.3426
    1W        W66984  10.327   6.848   6.470 -0.2220  0.0846 -0.0931
    1W        W66985  27.542  18.721   6.411 -0.2855  0.0387  0.2074
    1W        W66986  13.117   5.221   6.589  0.0459 -0.3034 -0.1931
    1W        W66987  17.068   4.581   0.342  0.0099  0.1299  0.0945
    1W        W66988  11.440  20.329   5.814 -0.1575 -0.3052  0.2856
    1W        W66989  10.185  23.722   0.682 -0.0148 -0.2841 -0.0413
    1W        W66990   1.011  18.322   1.313 -0.2379 -0.1334 -0.0755
    1W        W66991   0.996  25.207   8.001 -0.1078 -0.0938 -0.0989
    1W        W66992  17.911  15.899   1.149  0.1947  0.1528  0.1036
    1W        W66993   5.400   7.986   8.666  0.2317  0.0391  0.3036
    1W        W66994   1.789  18.452   0.595  0.2805 -0.1053 -0.2195
    1W        W66995   8.075  18.603   5.455 -0.1885  0.0349  0.1821
    1W        W66996  21.946  18.463   0.766 -0.2350 -0.1520  0.1690
    1W        W66997   0.816  11.821   1.525 -0.4482 -0.1894 -0.1180
    1W        W66998   0.595  10.525   0.239 -0.1823  0.0079 -0.0477
    1W        W66999   9.034  10.224   7.629 -0.1931 -0.2673 -0.3905
    1W        W67000  29.694  13.858   1.140 -0.2963  0.1623  0.4413
    1W        W67001   8.521  20.533   8.490  0.2440 -0.1719 -0.1776
    1W        W67002  23.544  30.343   2.941  0.1358  0.1692 -0.1745
    1W        W67003  13.014  10.823   1.413 -0.0503 -0.1097 -0.1316
    1W        W67004  19.349  20.924   2.092  0.2072  0.2613  0.3291
    1W        W67005  24.689  12.793   6.095 -0.2714  0.3883  0.1238
    1W        W67006   0.194  19.330   0.520  0.1885  0.2714  0.1369
    1W        W67007  29.078  15.240   6.642 -0.1348 -0.3346 -0.0206
    1W        W67008  25.897  23.791   6.783  0.1793 -0.1698  0.3096
    1W        W67009  22.430  26.861   3.286 -0.0799 -0.0760 -0.1541
    1W        W67010   1.941  12.396   6.467 -0.0867 -0.1301 -0.2014
    1W        W67011  11.482  11.642   2.464  0.1899  0.0181  0.0799
    1W        W67012  11.470  16.203   2.471 -0.1496 -0.0136  0.0735
    1W        W67013  24.940   5.621   2.628 -0.0715  0.0986 -0.0845
    1W        W67014  18.533  11.087   8.753 -0.3514 -0.1019 -0.0994
    1W        W67015   3.977  15.507   6.702 -0.1591 -0.1367  0.3074
    1W        W67016  15.379  14.707   8.446  0.0796 -0.0839  0.5118
    1W        W67017   6.871  13.978   6.754  0.0551 -0.0605 -0.0050
    1W        W67018  12.090  27.519   0.372  0.0509  0.1216  0.2046
    1W        W67019  15.075   0.539   8.405  0.0414  0.0531 -0.1213
    1W        W67020  16.310  23.228   0.741 -0.3279  0.0420 -0.1455
    1W        W67021   3.285   2.716   9.038  0.2841 -0.1643 -0.2223
    1W        W67022  16.091   3.127   9.189  0.0249  0.0562  0.1539
    1W        W67023  20.194  12.940   0.982  0.2092 -0.0089 -0.0958
    1W        W67024  18.670  29.773   2.366 -0.0216 -0.0884 -0.1675
    1W        W67025  12.450   9.035   7.831  0.0609  0.2479 -0.0161
    1W        W67026  27.550   2.060   0.901  0.0598 -0.0695  0.0448
    1W        W67027  15.846   6.400   8.740 -0.0929 -0.0949 -0.1073
    1W        W67028  18.043  14.298   1.567  0.0812 -0.0354 -0.0235
    1W        W67029  15.707  20.640   5.981  0.1336  0.1330  0.0727
    1W        W67030  18.780  14.685   8.360  0.1102  0.4958  0.0264
    1W        W67031   8.750  19.044   2.158  0.2167  0.3902 -0.0360
    1W        W67032  27.968  26.410   0.055  0.0001 -0.0738 -0.0596
    1W        W67033  13.816  17.187   2.316 -0.0373 -0.2507 -0.1468
    1W        W67034  26.971  17.608   8.476 -0.0423 -0.1870  0.2897
    1W        W67035  14.517  10.954   0.384 -0.0165  0.3010 -0.1436
    1W        W67036   4.422   0.263   1.706 -0.0306  0.1723 -0.3160
    1W        W67037  11.616   0.166   8.721  0.2345  0.0536  0.0995
    1W        W67038  14.075   3.361   1.354 -0.1249  0.0578  0.0512
    1W        W67039  20.612  17.938   2.120 -0.2052  0.2290 -0.2542
    1W        W67040  10.671  23.229   0.633  0.1814 -0.2063  0.0392
    1W        W67041  10.208   2.648   0.895 -0.3573  0.1356  0.0453
    1W        W67042  11.706  30.347   1.145  0.1444  0.2146  0.0869
    1W        W67043  27.824  25.028   6.739  0.2072  0.2368 -0.2395
    1W        W67044  17.492   0.226   8.151  0.0137  0.3961 -0.0432
    1W        W67045   7.226  16.303   7.906  0.0171 -0.2191  0.0237
    1W        W67046   7.030  20.730   0.342 -0.1545  0.0024 -0.1240
    1W        W67047  30.256  21.067   6.927 -0.2350 -0.0764 -0.1106
    1W        W67048  30.131   1.812   8.916 -0.2442  0.2469  0.0904
    1W        W67049  27.560  11.570   6.961  0.0992  0.1215 -0.1121
    1W        W67050  27.387  12.607   9.004 -0.0855  0.1908  0.2437
    1W        W67051  28.739   2.889   2.777 -0.2605 -0.1801  0.0533
    1W        W67052  19.462  26.810   1.235  0.1384  0.1549  0.0492
    1W        W67053  18.293  13.091   0.987  0.0046 -0.2962 -0.0089
    1W        W67054  27.543   0.672   2.937 -0.1221 -0.1693 -0.3602
    1W        W67055  29.628  23.340   1.408  0.0768 -0.0081  0.0894
    1W        W67056   7.504  21.473   7.428  0.0083 -0.0586 -0.3055
    1W        W67057  18.388  23.044   7.352 -0.2052  0.2120  0.1317
    1W        W67058  27.924   6.274   1.050  0.0304 -0.3087 -0.1906
    1W        W67059   4.048  14.887   2.156  0.1399  0.1441  0.0137
    1W        W67060   2.622  15.837   8.378 -0.0085 -0.0525  0.0879
    1W        W67061  22.872  19.411   8.895  0.2154 -0.0838  0.0540
    1W        W67062  11.067   1.936   1.981 -0.0296 -0.2507  0.0259
    1W        W67063  23.216  26.943   1.747  0.0811 -0.0400 -0.2947
    1W        W67064  30.212  15.327   0.940  0.0413 -0.0371  0.0797
    1W        W67065  10.697  20.833   1.458  0.0147  0.1464 -0.1451
    1W        W67066  15.585   6.074   6.505 -0.0023 -0.0540 -0.1358
    1W        W67067  27.410  25.636   8.071  0.1118  0.3822  0.1038
    1W        W67068   8.548  10.470   1.312  0.2015 -0.0135  0.0601
    1W        W67069  11.660  23.213   6.694  0.0232 -0.0048 -0.2313
    1W        W67070   7.691  26.758   1.590 -0.2017  0.0815 -0.4845
    1W        W67071   5.328  15.324   6.759  0.1037  0.0825  0.2193
    1W        W67072  28.423  30.130   0.038  0.0274 -0.0747 -0.2260
    1W        W67073   5.495  28.783   1.472 -0.0321 -0.1977 -0.0081
    1W        W67074  12.471  20.502   6.948  0.0780 -0.1528  0.1717
    1W        W67075  22.171   4.157   6.577  0.0050  0.1075  0.2449
    1W        W67076  25.625  25.560   7.092 -0.0593  0.3085  0.0743
    1W        W67077  23.413  12.869   0.834 -0.2290  0.1437  0.0493
    1W        W67078  21.184  21.925   9.105  0.1347 -0.2954 -0.3004
    1W        W67079  20.524   1.774   7.687  0.0138  0.1137  0.1724
    1W        W67080  27.712  29.853   9.035 -0.1383  0.0691 -0.0456
    1W        W67081  26.332  13.310   7.328  0.0896 -0.0086 -0.2343
    1W        W67082   5.720  27.807   6.821 -0.0352  0.1737 -0.0492
    1W        W67083  12.926  30.163   7.446 -0.2704 -0.1284  0.2042
    1W        W67084  18.599  11.166   7.378 -0.2081  0.0197  0.4242
    1W        W67085  18.477  28.543   3.347 -0.3204 -0.0030  0.1601
    1W        W67086  13.212  17.229   2.461 -0.4339 -0.3635  0.1575
    1W        W67087  17.018  14.796   0.339 -0.3025 -0.1279  0.3643
    1W        W67088  27.953  17.143   1.223 -0.1389  0.0829  0.1822
    1W        W67089  24.005  16.479   0.331  0.1133  0.1710  0.3367
    1W        W67090  15.134  26.918   0.186 -0.1194 -0.1427  0.2368
    1W        W67091  14.568  28.595   3.578 -0.1290 -0.1371  0.0089
    1W        W67092  13.092   9.380   2.621 -0.0397  0.1610 -0.0278
    1W        W67093  14.003  28.410   8.494  0.0526  0.1160 -0.0317
    1W        W67094  23.317  12.336   7.796 -0.1708 -0.2773 -0.2714
    1W        W67095  20.326  17.478   1.897 -0.0110 -0.4064  0.0185
    1W        W67096   5.021   9.391   0.403 -0.3235 -0.3098 -0.1086
    1W        W67097   7.609   4.638   8.549 -0.0051 -0.2652 -0.1803
    1W        W67098  20.079  20.746   0.439 -0.2604  0.3098 -0.1305
    1W        W67099  24.834   1.915   2.831 -0.1510  0.0431 -0.0874
    1W        W67100  17.966   6.552   6.344  0.0064 -0.0971  0.0644
    1W        W67101  29.388  14.176   6.532  0.1008  0.0576  0.1983
    1W        W67102  21.846  13.428   0.914  0.0245 -0.2429  0.1880
    1W        W67103   3.258  20.292   7.523  0.3289 -0.1282  0.1138
    1W        W67104  16.936  25.872   8.423 -0.0352  0.1396 -0.1427
    1W        W67105  11.065  12.113   7.803 -0.0653 -0.0285 -0.0941
    1W        W67106  21.576  20.902   1.935  0.3127  0.1410 -0.1132
    1W        W67107   9.216   9.478   9.195  0.1233  0.0085 -0.1752
    1W        W67108   6.427  20.553   0.288  0.1127 -0.0701 -0.1357
    1W        W67109  26.859  29.675   2.438 -0.2921  0.2428  0.0320
    1W        W67110  27.948  22.017   6.863  0.0693 -0.1468 -0.1160
    1W        W67111  28.358   7.118   2.563  0.0988  0.1153  0.1710
    1W        W67112  12.478  21.708   1.843  0.2176  0.3175  0.2707
    1W        W67113  15.864  28.058   2.867 -0.0459  0.1772  0.1289
    1W        W67114   8.828  22.600   1.713 -0.2602 -0.2138 -0.1789
    1W        W67115  14.142   9.348   7.877 -0.1310  0.1421  0.3394
    1W        W67116  29.784  10.767   7.198 -0.1653  0.0935  0.2943
    1W        W67117   3.368  19.953   1.276 -0.0890  0.2745 -0.0550
    1W        W67118  23.760   2.415   8.638 -0.0681  0.2714 -0.1361
    1W        W67119  22.580   2.236   7.648  0.1430  0.1019 -0.0580
    1W        W67120  15.976   0.226   6.233  0.4169 -0.3296  0.1158
    1W        W67121  27.432  27.006   8.687  0.2624  0.1988 -0.0277
    1W        W67122   6.297  29.775   1.742  0.2010  0.0771  0.0504
    1W        W67123   8.705   2.772   1.425 -0.0407 -0.1227 -0.2267
    1W        W67124   7.991   7.906   6.794 -0.1104  0.0286  0.1081
    1W        W67125  24.629  29.000   1.379 -0.1002  0.4632  0.0406
    1W        W67126  10.279  13.657   0.606 -0.3114 -0.2761  0.0275
    1W        W67127  27.593  18.681   0.601 -0.4023 -0.2537  0.0735
    1W        W67128   1.611  24.280   2.871  0.2843  0.0222  0.3072
    1W        W67129   7.226   0.148   7.870 -0.0776 -0.0409 -0.1198
    1W        W67130  18.239  15.576   2.140  0.2306 -0.1961 -0.0469
    1W        W67131  26.782   6.425   3.432  0.2785 -0.1401  0.3081
    1W        W67132   3.947   9.409   2.384 -0.0854  0.1051  0.0582
    1W        W67133  21.614   2.082   8.358 -0.0251  0.0128  0.1131
    1W        W67134  23.925  19.266   7.199  0.1229 -0.0570  0.3540
    1W        W67135  25.944  20.086   8.683 -0.0779  0.1428  0.2837
    1W        W67136  15.879   6.571   5.337 -0.3373  0.5273  0.1472
    1W        W67137  16.854  13.973   8.059  0.1112  0.0631 -0.0675
    1W        W67138   4.786   7.696   6.847  0.0947  0.1842 -0.0512
    1W        W67139  26.425   8.959   2.100 -0.2295 -0.2237  0.1759
    1W        W67140   3.503   9.030   8.123 -0.1032  0.0706 -0.3953
    1W        W67141   2.006  21.070   6.255  0.1010 -0.0221 -0.1578
    1W        W67142  21.160  25.370   9.256 -0.3161  0.0304  0.3190
    1W        W67143  18.326   3.380   1.719 -0.0975 -0.0156 -0.0577
    1W        W67144   3.524  27.636   7.184 -0.0568 -0.1664 -0.0514
    1W        W67145  21.628  12.418   1.922  0.2159 -0.2176 -0.1261
    1W        W67146  12.752  18.205   6.519  0.0761  0.2878  0.4370
    1W        W67147   3.558  24.604   7.863 -0.1669 -0.2233 -0.0557
    1W        W67148  26.506  22.937   8.139  0.2286  0.2163  0.1871
    1W        W67149   7.294   0.560   7.629  0.3624  0.1814 -0.0881
    1W        W67150   1.436   4.122   7.968 -0.1468 -0.0220 -0.0892
    1W        W67151  28.804  14.607   1.681 -0.0593  0.2744 -0.1604
    1W        W67152  28.716  21.379   8.955 -0.0786 -0.1084 -0.0018
    1W        W67153   0.679   7.007   1.563  0.1219 -0.3692  0.2025
    1W        W67154  26.650   3.173   2.734  0.0508 -0.1417 -0.1414
    1W        W67155  17.700  26.316   0.963  0.2030 -0.1000 -0.0841
    1W        W67156   4.142  23.535   6.420  0.0355  0.1234  0.2086
    1W        W67157   2.134   0.161   8.527 -0.2150  0.0843  0.1077
    1W        W67158   7.404   2.833   2.326  0.0833 -0.0762  0.0356
    1W        W67159  27.714  23.209   0.219 -0.1780  0.0771 -0.2634
    1W        W67160  29.308   5.848   8.537 -0.3230  0.0496  0.2523
    1W        W67161   6.451   6.943   8.409  0.0911  0.0303 -0.2438
    1W        W67162   5.952  23.851   7.920 -0.1686  0.2370 -0.2200
    1W        W67163   8.930  17.293   0.241  0.4678 -0.0599 -0.1421
    1W        W67164  19.009  20.348   6.411  0.0766 -0.1051 -0.0726
    1W        W67165  14.683   2.089   6.862  0.0170 -0.0580  0.0265
    1W        W67166  25.256   4.017   1.059 -0.0123  0.0335  0.1822
    1W        W67167  11.990  19.133   0.303 -0.2101 -0.0257 -0.1071
    1W        W67168  22.503   7.487   8.102  0.2583 -0.2267 -0.1992
    1W        W67169  28.886   4.567   8.430 -0.2240  0.0462 -0.1646
    1W        W67170  18.182  16.734   8.026 -0.2189  0.1901 -0.2010
    1W        W67171  14.003  11.158   2.189 -0.0094 -0.2039  0.1106
    1W        W67172  22.859  13.551   7.850 -0.0933  0.1541  0.2505
    1W        W67173  10.576  16.969   7.460 -0.2898  0.0601  0.0783
    1W        W67174   4.858   6.875   1.695 -0.0011  0.4451 -0.0997
    1W        W67175  28.315  25.281   8.460  0.1163  0.3187 -0.1091
    1W        W67176  18.442   4.284   7.537 -0.1091 -0.2369  0.1849
    1W        W67177  26.026   5.093   2.719 -0.0756  0.0905  0.1235
    1W        W67178  12.072  14.190   8.020 -0.0091 -0.2447  0.3150
    1W        W67179  26.344  16.927   2.131  0.3451 -0.0765  0.1020
    1W        W67180  18.356  22.091   6.140 -0.2563  0.2821 -0.0052
    1W        W67181  17.331  13.425   3.377  0.0844 -0.1784  0.0117
    1W        W67182   6.129   6.605   1.531  0.1610 -0.0122  0.2960
    1W        W67183  21.722   2.916   2.019  0.0167  0.0206 -0.0810
    1W        W67184  13.262  10.687   7.827  0.0422 -0.2718 -0.1988
    1W        W67185   8.712  26.508   7.801  0.4396  0.0322 -0.0036
    1W        W67186  14.331  29.510   0.894  0.3324 -0.0061 -0.3203
    1W        W67187   4.838  25.450   2.750  0.0460  0.0704  0.0090
    1W        W67188  17.675  13.136   6.978  0.0908  0.3231 -0.2009
    1W        W67189  15.272  12.811   3.443 -0.2655  0.2415  0.0222
    1W        W67190  15.635  15.839   0.042  0.0218 -0.1477 -0.0945
    1W        W67191   4.873  11.935   0.134  0.2242  0.1919 -0.1096
    1W        W67192   6.249   3.036   0.169  0.3081 -0.3442  0.3461
    1W        W67193  22.114  17.768   6.153  0.1934  0.2999 -0.0496
    1W        W67194   1.280   8.791   0.777 -0.0064  0.1398  0.0963
    1W        W67195   3.562  19.392   6.939  0.0709 -0.1228  0.1233
    1W        W67196  12.018  19.738   1.926 -0.1503  0.1305  0.3062
    1W        W67197   5.159   7.798   9.110 -0.1293  0.2512 -0.1135
    1W        W67198   2.755  15.358   1.824 -0.0895 -0.3030 -0.3318
    1W        W67199  20.142  22.431   2.212 -0.2147  0.1257 -0.0442
    1W        W67200  25.743  25.483   8.044  0.3260  0.2268  0.2694
    1W        W67201   7.058   7.070   0.841  0.0698  0.1468  0.1655
    1W        W67202  22.768   9.082   0.695 -0.2670  0.2293 -0.1124
    1W        W67203   3.769  20.028   7.657 -0.1517  0.1134  0.1074
    1W        W67204   3.133  20.400   1.201  0.0261  0.0554 -0.0291
    1W        W67205   6.224   5.452   0.287  0.0320 -0.2744 -0.2327
    1W        W67206  17.014  18.764   3.056  0.0480  0.0426  0.0343
    1W        W67207  30.275   5.810   8.626 -0.1544 -0.4173  0.0393
    1W        W67208   4.091   0.639   1.640  0.1847 -0.0388  0.3664
    1W        W67209  23.825  12.662   9.078 -0.0221  0.0967  0.3837
    1W        W67210  13.137  12.577   2.895 -0.0259 -0.0464  0.4272
    1W        W67211  23.150  21.742   6.559 -0.0781  0.1826  0.1529
    1W        W67212  15.371   7.394   6.716 -0.1212 -0.1873 -0.1312
    1W        W67213   8.063  27.746   1.259  0.1653 -0.0516 -0.2337
    1W        W67214  29.851  13.869   0.014  0.0250 -0.2169  0.2978
    1W        W67215   6.085  20.809   6.264  0.1294 -0.1622  0.2973
    1W        W67216  27.613   8.274   7.738  0.1403  0.2015 -0.1075
    1W        W67217  26.686  28.781   8.345 -0.0042 -0.2580 -0.0540
    1W        W67218   1.426   7.257   1.970  0.1498  0.3082  0.0701
    1W        W67219  30.018   0.856   8.395 -0.0181 -0.3712 -0.1009
    1W        W67220  23.510  15.848   0.674  0.1583  0.1723 -0.1145
    1W        W67221  28.800   1.953   3.170  0.2540  0.3240 -0.1755
    1W        W67222  21.061   4.518   2.684  0.1375  0.3130 -0.1063
    1W        W67223  14.722   4.489   8.601 -0.3913 -0.0398 -0.1300
    1W        W67224   0.653  10.706   8.734  0.0235  0.0728  0.4852
    1W        W67225   0.388   7.026   7.720 -0.0433  0.1045  0.2776
    1W        W67226  10.055  19.732   3.127 -0.0081 -0.0743 -0.0138
    1W        W67227  25.383   1.443   7.534  0.1254 -0.0033  0.2004
    1W        W67228   5.433  14.489   1.432  0.0987  0.3708 -0.2017
    1W        W67229  22.310   9.733   1.078 -0.1652  0.1918 -0.0149
    1W        W67230   0.785  11.565   0.648  0.1811 -0.0782 -0.0921
    1W        W67231  18.454   6.976   5.980  0.0425 -0.1959 -0.0293
    1W        W67232   6.315  17.903   9.073  0.1377  0.0135  0.1657
    1W        W67233  19.998  21.871   1.378 -0.1779  0.0853 -0.3523
    1W        W67234   3.326   1.349   6.998 -0.2414 -0.0442 -0.0157
    1W        W67235  25.766  17.969   0.907 -0.1318 -0.2107  0.0129
    1W        W67236   1.846   2.136   2.054  0.1919 -0.0934  0.0338
    1W        W67237  18.388   1.863   8.517  0.0769 -0.0729  0.1896
    1W        W67238  25.218  22.001   9.094  0.2242  0.1247 -0.0321
    1W        W67239   6.701  17.037   0.042 -0.1115  0.1695 -0.1877
    1W        W67240   2.644  12.370   7.991 -0.3652 -0.2564  0.0864
    1W        W67241  22.749   2.046   8.370 -0.0968 -0.1017  0.0780
    1W        W67242  16.945  17.390   6.485 -0.0714  0.0891 -0.0708
    1W        W67243  27.281   6.815   8.536  0.3651  0.0179 -0.0367
    1W        W67244  17.075   8.109   2.095 -0.0023 -0.0067 -0.1609
    1W        W67245   5.093  19.937   8.024  0.1907 -0.2705 -0.0712
    1W        W67246  19.561   4.254   7.269 -0.1363  0.1067  0.0090
    1W        W67247   1.376   9.059   7.797  0.1997 -0.0349 -0.1612
    1W        W67248  13.324  26.665   8.123 -0.2138  0.0136 -0.3041
    1W        W67249   4.155   7.420   1.603  0.0034 -0.1925 -0.2283
    1W        W67250  17.860  21.595   6.959 -0.1180 -0.2655 -0.0384
    1W        W67251  28.616  15.374   6.436 -0.1556 -0.0738 -0.0898
    1W        W67252   5.190  11.436   8.471  0.2042 -0.1276 -0.0672
    1W        W67253  18.860  21.341   7.263  0.2029  0.0809 -0.2303
    1W        W67254   7.476  17.465   0.163  0.1685  0.0147 -0.4235
    1W        W67255  15.620   3.181   7.256  0.0787 -0.3840 -0.1994
    1W        W67256   1.314   3.823   7.196 -0.0666 -0.1064 -0.0190
    1W        W67257  25.336  16.531   6.493 -0.5994  0.1648 -0.2546
    1W        W67258   4.253  16.352   1.499  0.1684 -0.0686 -0.1297
    1W        W67259  12.257   2.304   0.507 -0.0153  0.1638  0.6170
    1W        W67260   8.868  17.798   1.521  0.1450  0.0308  0.1266
    1W        W67261  29.907   3.276   7.900 -0.1376  0.0523  0.1159
    1W        W67262  24.670  10.205   1.120 -0.0554 -0.1988 -0.0989
    1W        W67263  23.870  24.025   6.798  0.2453  0.0957  0.1155
    1W        W67264  25.190  22.237   1.827 -0.0499  0.2164  0.0841
    1W        W67265  24.501  25.155   2.427  0.0240 -0.1698 -0.2981
    1W        W67266  20.139   5.126   6.949 -0.0873 -0.1901  0.0555
    1W        W67267  29.458  13.656   1.592 -0.0791  0.0662 -0.0202
    1W        W67268   7.910  24.752   1.985  0.0696 -0.0102 -0.0291
    1W        W67269  17.024  10.094   7.933 -0.2411  0.2462 -0.1258
    1W        W67270  12.969  12.179   1.676 -0.0543  0.1417 -0.0036
    1W        W67271   4.473   1.112   7.792  0.0080 -0.2127 -0.0675
    1W        W67272   4.119  15.781   8.377  0.0432 -0.2612 -0.3718
    1W        W67273   8.682  26.966   6.750  0.1926  0.1520  0.0001
    1W        W67274  19.431  11.360   6.718 -0.0232  0.1095  0.1065
    1W        W67275  29.185  29.885   1.468 -0.2941  0.1021 -0.3939
    1W        W67276  19.444  29.613   0.637  0.0813  0.0707  0.4248
    1W        W67277  10.528  11.415   1.554  0.0925  0.0999 -0.1317
    1W        W67278   7.335  15.890   6.642 -0.0769  0.0309 -0.0500
    1W        W67279  21.733  16.706   1.010  0.3222 -0.0881  0.0926
    1W        W67280  20.625   5.833   1.236  0.0914  0.1657  0.2592
    1W        W67281  20.239  11.995   0.900 -0.2474 -0.2572 -0.1327
    1W        W67282   7.339  19.747   6.123 -0.1508 -0.1234 -0.2711
    1W        W67283   9.107  29.239   2.182 -0.2073 -0.1544  0.1174
    1W        W67284  23.602  27.023   1.427 -0.0566 -0.3404 -0.1673
    1W        W67285   8.341  27.948   7.601 -0.2364 -0.2006 -0.2194
    1W        W67286   7.664   6.405   2.361 -0.0187  0.0197  0.1561
    1W        W67287  13.940  13.227   0.009 -0.0695 -0.0801 -0.2202
    1W        W67288  17.484  20.330   0.324  0.0278 -0.1476 -0.1828
    1W        W67289  24.980   0.723   7.448  0.0165  0.0745 -0.1999
    1W        W67290   3.291  14.435   0.456 -0.0507 -0.0165 -0.0240
    1W        W67291  22.265  21.835   8.829 -0.0003  0.0714 -0.4038
    1W        W67292  10.636  12.329   0.145 -0.2153  0.0642 -0.2406
    1W        W67293  16.300  10.165   1.801  0.0174 -0.1552  0.0689
    1W        W67294  27.876  12.747   0.959 -0.0824  0.1876  0.0180
    1W        W67295  24.438  14.926   7.444  0.3156  0.0033 -0.2035
    1W        W67296   3.598  11.673   1.950 -0.0498 -0.1656  0.0333
    1W        W67297   9.704  15.712   8.128 -0.1750 -0.0368 -0.0496
    1W        W67298   4.234  22.160   1.468  0.1297  0.0498 -0.0652
    1W        W67299  14.684  15.473   1.107 -0.4245 -0.0943  0.0015
    1W        W67300   7.943  23.788   8.196 -0.2794 -0.0123  0.1101
    1W        W67301   3.442  23.619   0.197  0.1262  0.3570  0.1601
    1W        W67302  22.539  24.419   1.626 -0.0813 -0.0074  0.0692
    1W        W67303   6.332   6.281   1.168 -0.2140 -0.1317 -0.3274
    1W        W67304   8.838  18.187   8.977  0.1210  0.1816 -0.0477
    1W        W67305  18.377  12.861   0.403 -0.0478  0.0232 -0.0853
    1W        W67306   9.559  24.503   0.465  0.1423  0.0904 -0.0218
    1W        W67307  19.359   3.946   1.067  0.0618  0.1598  0.0282
    1W        W67308  28.336  18.281   6.397 -0.0060 -0.4808 -0.0629
    1W        W67309  16.533  17.764   8.907  0.1727  0.0886  0.1597
    1W        W67310   1.220  21.422   1.436  0.2285 -0.2475  0.3220
    1W        W67311  10.847   6.131   9.095 -0.1408 -0.3045  0.0194
    1W        W67312  21.729   6.384   0.752  0.1719 -0.0359 -0.1770
    1W        W67313  20.811  20.150   7.111 -0.0705  0.3453 -0.0830
    1W        W67314   1.459  18.832   0.578  0.1974  0.0463  0.1885
    1W        W67315   7.921  19.968   1.897 -0.2243  0.1253  0.2235
    1W        W67316  28.295   2.468   7.838  0.2640  0.1356  0.2935
    1W        W67317  13.713  11.557   3.432  0.3942 -0.0144 -0.0607
    1W        W67318   4.378  30.221   7.934  0.0664  0.3775  0.0299
    1W        W67319  13.938  29.954   2.481  0.0282  0.0838 -0.1264
    1W        W67320   4.197   8.425   2.801  0.0339 -0.0985  0.2578
    1W        W67321  15.116  11.596   2.154  0.2721 -0.0633 -0.1957
    1W        W67322   7.452   5.015   8.069  0.0020 -0.0464 -0.0201
    1W        W67323   5.872  26.274   7.081  0.0568  0.0933  0.0130
    1W        W67324  28.625  28.550   1.112 -0.1948 -0.0552  0.1229
    1W        W67325  20.738  28.449   8.282  0.1779  0.0506 -0.3281
    1W        W67326  13.411  10.660   3.047  0.0803  0.0267  0.0373
    1W        W67327  10.995  12.533   3.038  0.0942 -0.0843  0.2751
    1W        W67328  21.234  28.436   0.512 -0.0007  0.0906 -0.0527
    1W        W67329   7.511   2.539   0.120 -0.0687  0.1010 -0.3337
    1W        W67330  26.854  10.023   8.801  0.2771  0.4443 -0.2850
    1W        W67331  25.420  26.922   8.083  0.0735  0.0178  0.0099
    1W        W67332  10.468  17.643   1.872 -0.0050  0.1602 -0.1496
    1W        W67333  10.131  17.719   7.734  0.0282 -0.0960 -0.1093
    1W        W67334  11.150  13.076   8.210 -0.2622 -0.2034 -0.1325
    1W        W67335  21.262  27.118   3.195 -0.1262 -0.0958  0.4553
    1W        W67336  13.915  17.085   7.205 -0.4826  0.0881  0.1097
    1W        W67337  13.048  25.126   0.053 -0.1156 -0.2805  0.0425
    1W        W67338   8.296  14.700   1.047  0.1134  0.0244  0.2504
    1W        W67339  20.608   1.053   0.484 -0.1401  0.2567 -0.0039
    1W        W67340  11.536  29.188   6.611 -0.0427  0.0429 -0.1292
    1W        W67341  23.594  28.444   7.265  0.1831  0.2260  0.0424
    1W        W67342  21.587  20.640   2.346  0.0109  0.0433 -0.0199
    1W        W67343  27.033   4.084   1.031 -0.0972  0.2435  0.0611
    1W        W67344   4.250   7.101   8.541  0.0164 -0.1905  0.1221
    1W        W67345  29.461   0.069   7.595  0.2104  0.1615 -0.0708
    1W        W67346  18.196   3.288   8.661  0.1299  0.3562  0.0343
    1W        W67347  19.598  29.197   0.303  0.3804  0.2320 -0.0008
    1W        W67348  11.219  16.541   6.967 -0.0192  0.2975  0.0658
    1W        W67349   0.933   8.090   2.169  0.1362 -0.1098 -0.1069
    1W        W67350  10.609   1.277   0.318 -0.0506 -0.2427  0.0684
    1WF      WF67351  28.802  21.763   0.768  0.0957 -0.2659 -0.2371
    1WF      WF67352  14.105  21.610   8.848  0.0902 -0.1208 -0.1218
    1WF      WF67353  22.545  10.688   1.183  0.3104 -0.4172  0.0373
    1WF      WF67354  13.732  26.046   2.628 -0.1906  0.0802 -0.0937
    1WF      WF67355  12.311  16.605   0.516  0.0183  0.1126 -0.1889
    1WF      WF67356   3.502  17.120   0.043  0.0110 -0.1467  0.0353
    1WF      WF67357  26.103   6.419   8.087  0.2349  0.1191  0.0324
    1WF      WF67358   2.415   2.949   0.475  0.1505 -0.0613  0.3244
    1WF      WF67359  13.446  14.002   0.865 -0.3339  0.0811  0.2530
    1WF      WF67360  24.270   3.379   3.125  0.0922 -0.0681 -0.0909
    1WF      WF67361  16.229   0.695   0.632 -0.1125 -0.4814  0.1531
    1WF      WF67362   5.859   6.700   6.980 -0.2555 -0.1136  0.0311
    1WF      WF67363  26.471   8.585   8.165 -0.0877  0.0035  0.3852
    1WF      WF67364  28.905   3.601   7.184  0.0361 -0.2815  0.1081
    1WF      WF67365  16.702  14.340   0.096  0.2212 -0.1135  0.0584
    1WF      WF67366  22.724  30.198   0.770 -0.1085 -0.2056 -0.4349
    1WF      WF67367  24.995  24.001   1.418 -0.5242  0.0597  0.0685
    1WF      WF67368   4.689  17.571   0.048 -0.1794  0.1083 -0.0965
    1WF      WF67369  24.602  20.127   7.915  0.1614  0.1518 -0.0843
    1WF      WF67370  29.698   3.226   1.685  0.1939  0.1468  0.0649
    1WF      WF67371  22.101   4.969   8.671 -0.0537  0.3016 -0.1804
    1WF      WF67372  12.723  24.697   1.709  0.0151  0.0675  0.0235
    1WF      WF67373   0.589  15.888   1.360 -0.0770 -0.3194 -0.0737
    1WF      WF67374  22.284  13.489   7.504  0.0356 -0.3751  0.1906
    1WF      WF67375   0.861   0.755   1.719  0.2432 -0.0977 -0.2910
    1WF      WF67376   7.909  23.285   0.937 -0.0404  0.3463 -0.2398
    1WF      WF67377  11.627   7.618   0.067  0.0460 -0.2071  0.0447
    1WF      WF67378  27.531  25.040   8.012 -0.0886 -0.0523 -0.2149
    1WF      WF67379  29.258  24.561   7.994  0.0618  0.0879 -0.2891
    1WF      WF67380   0.529   9.335   1.421  0.1670 -0.2983 -0.0803
    1WF      WF67381  20.599  23.493   0.629  0.1060 -0.0027  0.0447
    1WF      WF67382  28.994   1.579   8.739 -0.3253 -0.0436  0.1007
    1WF      WF67383  23.858   0.422   8.624 -0.1001 -0.0096  0.2956
    1WF      WF67384  29.085  26.203   7.733 -0.0916 -0.2086 -0.0665
    1WF      WF67385   7.477   1.943   2.238  0.1152  0.0257 -0.1660
    1WF      WF67386  15.937  16.109   8.447  0.2228 -0.5289  0.1470
    1WF      WF67387   5.044  27.333   0.486 -0.0552  0.2432 -0.2340
    1WF      WF67388   6.496  15.764   8.691  0.0675 -0.2188  0.2438
    1WF      WF67389  15.886   1.114   8.253  0.2189  0.1301  0.0780
    1WF      WF67390   8.532   6.917   1.056 -0.2259 -0.3378  0.2181
    1WF      WF67391   9.961   5.704   2.865 -0.1206  0.1930 -0.1386
    1WF      WF67392  17.607  29.330   8.083 -0.0556  0.2168 -0.1530
    1WF      WF67393   7.279   7.948   0.177  0.1878 -0.1298 -0.1571
    1WF      WF67394  12.057  19.000   2.160  0.0307  0.0451 -0.0122
    1WF      WF67395  27.383  12.598   0.501 -0.0985 -0.0551  0.0837
    1WF      WF67396  27.252   9.275   7.414 -0.0846  0.0697 -0.3940
    1WF      WF67397   7.877  12.324   0.345  0.0106 -0.2960  0.1037
    1WF      WF67398   9.052  15.722   0.891  0.1987 -0.0828 -0.3289
    1WF      WF67399  28.317  10.807   9.218 -0.2073 -0.1166  0.0723
    1WF      WF67400   1.395  20.464   8.077 -0.2361 -0.0937  0.1584
    1WF      WF67401  22.625  29.858   7.409  0.1770  0.0150 -0.1212
    1WF      WF67402  22.973  15.465   2.259 -0.0127  0.0778 -0.1781
    1WF      WF67403  18.413   0.978   7.724 -0.3559  0.0071 -0.0851
    1WF      WF67404   7.309  16.859   1.536 -0.2009  0.0916  0.0691
    1WF      WF67405  27.025  11.858   1.056 -0.1637 -0.3732 -0.3704
    1WF      WF67406  24.392   9.564   7.950  0.0598 -0.0250 -0.2113
    1WF      WF67407  23.160  12.485   2.135 -0.0241 -0.2236 -0.1914
    1WF      WF67408  28.385  26.583   1.364  0.2664 -0.2627  0.3024
    1WF      WF67409  11.013   2.137   0.233  0.0009  0.0326 -0.0687
    1WF      WF67410  20.810   3.626   8.843 -0.1880  0.1706 -0.1018
    1WF      WF67411  25.110   6.689   7.317  0.3266  0.2337 -0.1571
    1WF      WF67412  18.400  13.477   6.135 -0.1801  0.0060 -0.3110
    1WF      WF67413   5.363   1.686   0.198  0.1236 -0.1838 -0.1345
    1WF      WF67414  29.549  16.738   1.756  0.2331  0.2493 -0.1385
    1WF      WF67415  27.238  24.786   8.438  0.0827  0.1579  0.2575
    1WF      WF67416  12.424  17.073   0.607 -0.1312 -0.2132  0.1007
    1WF      WF67417  28.723   7.825   0.403 -0.1621  0.1901  0.1258
    1WF      WF67418  20.894  30.077   0.643 -0.0184  0.0685 -0.0251
    1WF      WF67419   7.096   9.532   7.165 -0.4087  0.0807 -0.0937
    1WF      WF67420   3.558   4.794   2.990 -0.1806  0.1966  0.0407
    1WF      WF67421  30.135   2.133   0.942  0.4108  0.2014  0.0258
    1WF      WF67422  22.051  20.145   1.685  0.0574 -0.2197 -0.3520
    1WF      WF67423   5.273   7.286   0.813  0.0786 -0.0286 -0.1043
    1WF      WF67424  17.898  24.249   9.261 -0.2663 -0.0045 -0.3524
    1WF      WF67425  16.811  29.677   0.475 -0.0592 -0.0859 -0.0058
    1WF      WF67426   9.089   2.421   1.632 -0.2081 -0.0528  0.0024
    1WF      WF67427   2.215  19.829   0.766  0.3726  0.0013  0.0130
    1WF      WF67428   2.917  18.544   6.273 -0.0515  0.0392  0.2678
    1WF      WF67429  12.028   4.836   1.878  0.0216 -0.0661  0.2150
    1WF      WF67430  16.035  19.122   7.546 -0.0192 -0.3984  0.1288
    1WF      WF67431   8.797  27.274   0.840  0.1317 -0.4909  0.3604
    1WF      WF67432  11.050  17.032   8.739 -0.1223  0.0451  0.0712
    1WF      WF67433   2.735  19.502   7.469 -0.3656 -0.1329  0.3115
    1WF      WF67434  16.581  13.786   0.784  0.0224 -0.1580  0.0240
    1WF      WF67435   1.732  21.869   8.670 -0.4340 -0.0694  0.0551
    1WF      WF67436   9.536   7.217   7.995  0.2246  0.2796  0.1579
    1WF      WF67437   9.564  26.864   1.109  0.2426  0.3017  0.0912
    1WF      WF67438  13.407  12.413   1.341  0.1641  0.2949  0.0619
    1WF      WF67439  13.710   6.662   9.095 -0.1041  0.0526 -0.0973
    1WF      WF67440   2.270  14.644   1.309  0.2860  0.1643  0.2212
    1WF      WF67441  28.242   4.930   0.251 -0.1394 -0.0246 -0.0398
    1WF      WF67442  13.169  25.136   8.132  0.0761 -0.1143  0.1818
    1WF      WF67443  13.756  10.977   8.146  0.1129  0.2461 -0.2459
    1WF      WF67444  23.793   0.354   0.763  0.1651  0.2560 -0.0062
    1WF      WF67445  24.949  13.720   8.256 -0.1066 -0.0232 -0.3051
    1WF      WF67446  14.243  23.551   2.193 -0.3734 -0.0340 -0.0466
    1WF      WF67447  15.676   6.871   0.371 -0.0895 -0.0515 -0.0405
    1WF      WF67448  17.079  29.508   8.318  0.0596 -0.1103 -0.1076
    1WF      WF67449  16.686   5.581   0.622  0.0483 -0.0347  0.1576
    1WF      WF67450  15.391   2.536   1.352  0.0414  0.2631 -0.0261
    1WF      WF67451   7.335   1.220   9.177 -0.1432  0.1005 -0.2974
    1WF      WF67452  13.941  27.907   0.949  0.3000 -0.1098  0.1720
    1WF      WF67453   8.817   3.292   2.945  0.1707 -0.0215 -0.1777
    1WF      WF67454   8.080  24.946   5.826 -0.0638 -0.1494  0.0170
    1WF      WF67455  24.407   8.427   0.675  0.2481 -0.1661 -0.2731
    1WF      WF67456  22.389  22.888   6.950  0.0403  0.1027 -0.0890
    1WF      WF67457  27.036  20.355   9.204  0.1910 -0.1241 -0.0860
    1WF      WF67458  13.248   6.163   1.021  0.2934 -0.2075 -0.0511
    1WF      WF67459   9.604   9.441   1.982 -0.0730 -0.1359 -0.7355
    1WF      WF67460   7.353   3.303   8.609 -0.4107  0.2884  0.0528
    1WF      WF67461   5.200  29.776   1.686  0.1677 -0.0420 -0.0703
    1WF      WF67462   9.151   0.756   0.081 -0.0091 -0.1163 -0.1657
    1WF      WF67463   1.785   3.650   2.104  0.2166 -0.1099 -0.2238
    1WF      WF67464  14.033  17.185   1.361  0.1571 -0.2765  0.0836
    1WF      WF67465   6.189   6.185   7.630 -0.1625  0.0712 -0.0859
    1WF      WF67466  17.415   8.747   8.200 -0.3213  0.1725  0.0728
    1WF      WF67467  15.432  23.691   1.214  0.1231  0.0320 -0.1097
    1WF      WF67468  16.822  15.535   8.916 -0.3612 -0.5479  0.0761
    1WF      WF67469  22.036  25.303   1.318  0.1723 -0.0587  0.0968
    1WF      WF67470  18.952  10.959   7.803 -0.0441 -0.1588  0.0452
    1WF      WF67471  22.009  11.955   8.893  0.2711 -0.0831 -0.1194
    1WF      WF67472  26.313   4.911   2.033 -0.0370 -0.3190 -0.0263
    1WF      WF67473  17.955  21.191   6.087 -0.1809 -0.0890  0.3386
    1WF      WF67474  13.606  23.214   0.940 -0.0366  0.1200  0.1607
    1WF      WF67475  29.639  28.863   1.476  0.1228 -0.4034 -0.3857
    1WF      WF67476  26.895  10.402   0.369  0.1439 -0.0605 -0.1134
    1WF      WF67477  21.565  19.202   7.811  0.0072 -0.2754 -0.3380
    1WF      WF67478  17.023   6.699   2.384 -0.2906 -0.0250 -0.0422
    1WF      WF67479  13.358  29.520   6.587  0.0614 -0.4613  0.2002
    1WF      WF67480   3.714   0.935   8.523  0.3038  0.1383 -0.0863
    1WF      WF67481  16.693  13.606   8.542 -0.0458 -0.2934  0.3876
    1WF      WF67482  10.212  13.337   8.151  0.3050 -0.0068 -0.3160
    1WF      WF67483  20.753  26.642   2.027  0.0645  0.1512  0.1100
    1WF      WF67484   5.838   5.146   8.699 -0.0848  0.1266 -0.0514
    1WF      WF67485  21.938  18.464   6.977  0.1297  0.2305 -0.0079
    1WF      WF67486  16.658  17.389   1.311 -0.0712  0.0838  0.0549
    1WF      WF67487   5.745   6.660   2.027  0.1503 -0.0797  0.0685
    1WF      WF67488  13.472  15.257   8.572 -0.0091  0.1681  0.2334
    1WF      WF67489   8.180  15.680   1.168 -0.1970  0.3773 -0.1325
    1WF      WF67490  18.729  16.416   9.038  0.3724 -0.1040 -0.1232
    1WF      WF67491  10.853   3.267   7.549 -0.2996 -0.0886  0.0093
    1WF      WF67492   8.625  12.189   3.327  0.1157  0.0670 -0.0775
    1WF      WF67493  26.688  19.503   6.991 -0.0214  0.0325  0.2654
    1WF      WF67494  12.600  23.562   0.905  0.0211  0.0787 -0.0548
    1WF      WF67495  12.855   8.005   8.157 -0.1111 -0.0064 -0.0174
    1WF      WF67496  30.170  14.730   0.146 -0.1647 -0.1177 -0.0595
    1WF      WF67497  10.636   9.917   8.497  0.2651 -0.2955  0.0873
    1WF      WF67498  20.028  27.560   3.521  0.2482  0.0938 -0.0562
    1WF      WF67499   8.676  11.241   8.613 -0.2524  0.2317 -0.4019
    1WF      WF67500  22.510   3.548   8.464 -0.1624 -0.1679 -0.2539
    1WF      WF67501  12.264  26.725   8.345  0.1513  0.0543  0.0894
    1WF      WF67502  21.467  10.138   1.890  0.1765  0.2262  0.1286
    1WF      WF67503  22.356  10.333   0.888 -0.1343 -0.0125  0.0689
    1WF      WF67504   9.402   5.177   3.205  0.1193  0.0758  0.1519
    1WF      WF67505  15.583  27.918   1.048  0.1527  0.1938  0.0791
    1WF      WF67506  26.951   1.896   0.172  0.1735  0.1033 -0.0095
    1WF      WF67507   4.783  23.086   1.133  0.0449 -0.1201 -0.0496
    1WF      WF67508   3.992  13.044   1.617  0.1884 -0.1120  0.0086
    1WF      WF67509  22.736  10.943   9.069  0.1062  0.3120  0.0191
    1WF      WF67510  25.188  23.602   0.979 -0.2773 -0.1563 -0.0500
    1WF      WF67511  21.763  19.522   8.269  0.1082  0.1519  0.2353
    1WF      WF67512  17.591  21.310   7.479 -0.0503  0.2453 -0.1896
    1WF      WF67513   9.375  22.767   0.179 -0.0383 -0.1551  0.2138
    1WF      WF67514  29.743   6.328   1.580  0.0637 -0.0461  0.1135
    1WF      WF67515  29.767   3.274   2.874  0.3178 -0.2053 -0.1759
    1WF      WF67516  14.908  27.456   6.550 -0.1268 -0.1469  0.2162
    1WF      WF67517   4.316   2.740   1.144  0.0666 -0.0942 -0.3728
    1WF      WF67518   9.683   4.126   0.572 -0.2410 -0.0017 -0.3062
    1WF      WF67519  16.194  11.516   7.546  0.0186 -0.0855 -0.2061
    1WF      WF67520  13.766  17.865   7.234 -0.3003 -0.0405 -0.1213
    1WF      WF67521  11.049  24.780   0.042  0.0371  0.0993  0.2063
    1WF      WF67522  24.629  14.451   1.120  0.3315  0.3842  0.2088
    1WF      WF67523  19.190  22.585   8.597 -0.1651 -0.0164 -0.0734
    1WF      WF67524  27.181  20.605   8.692  0.2217 -0.1453  0.0063
    1WF      WF67525   6.589   6.961   1.236  0.1797  0.0522  0.2493
    1WF      WF67526   2.000  21.769   9.157 -0.2844  0.1838  0.1086
    1WF      WF67527   6.414  22.711   7.682  0.0142 -0.0983 -0.3176
    1WF      WF67528  18.848  19.389   8.712 -0.2625  0.2196  0.1148
    1WF      WF67529  11.056  27.277   9.117 -0.3139 -0.1380 -0.0762
    1WF      WF67530   0.166  16.493   8.261  0.0858 -0.1052 -0.0845
    1WF      WF67531  19.117  12.357   7.592 -0.0966  0.2013 -0.3626
    1WF      WF67532  12.423  20.424   8.014 -0.2272  0.2786  0.1763
    1WF      WF67533  23.057   3.041   1.254 -0.1710 -0.1700 -0.1103
    1WF      WF67534  21.072  19.562   9.220 -0.0302  0.3616 -0.0009
    1WF      WF67535   0.468  28.171   1.164 -0.0619 -0.1156 -0.4039
    1WF      WF67536  17.647   8.902   9.271 -0.0888  0.0943 -0.0078
    1WF      WF67537  20.623  12.481   1.735  0.5789  0.1564  0.2884
    1WF      WF67538  27.543  28.546   0.725  0.4481 -0.0790  0.2111
    1WF      WF67539  14.413  28.702   2.852 -0.0631  0.2846  0.2753
    1WF      WF67540   8.285  21.919   5.581  0.0938  0.0238  0.3765
    1WF      WF67541  16.035   5.460   7.132  0.0828 -0.0215 -0.2717
    1WF      WF67542   5.160  27.839   0.602 -0.0807 -0.0227 -0.0911
    1WF      WF67543  10.349  26.464   1.097 -0.4900 -0.2263 -0.2320
    1WF      WF67544  14.882   1.288   2.166  0.0588  0.1635  0.0516
    1WF      WF67545  15.468   0.415   0.278 -0.2058 -0.1135  0.2417
    1WF      WF67546  12.134  25.434   8.054 -0.0333  0.0701 -0.1666
    1WF      WF67547  23.924  15.443   8.399 -0.0863  0.2673 -0.0157
    1WF      WF67548  23.910  29.622   2.409 -0.0270 -0.3789 -0.3274
    1WF      WF67549  28.950  29.019   8.877 -0.1493 -0.0088  0.1884
    1WF      WF67550  16.352  10.133   9.037  0.1674 -0.1487  0.1844
    1WF      WF67551  11.795   4.519   8.846 -0.0400  0.0364  0.0639
    1WF      WF67552   2.454  16.349   2.152  0.3246 -0.1297  0.2544
    1WF      WF67553  10.534   3.219   7.974 -0.1330  0.0923  0.0922
    1WF      WF67554  27.049  27.456   7.891 -0.2014  0.0228 -0.1581
    1WF      WF67555  24.312  10.888   8.771 -0.0819  0.2798 -0.0563
    1WF      WF67556  15.186  21.362   0.248 -0.0093 -0.0606  0.1071
    1WF      WF67557  21.848  13.700   7.638  0.0352 -0.3182 -0.0545
    1WF      WF67558   8.529  24.910   1.981 -0.0206 -0.2098 -0.0886
    1WF      WF67559   5.051  18.424   8.496  0.1189 -0.1176  0.2403
    1WF      WF67560  11.881  10.217   1.851 -0.0524  0.2644  0.0828
    1WF      WF67561  11.575  21.352   5.519 -0.0843 -0.4741 -0.0343
    1WF      WF67562  25.081  21.825   1.329 -0.0449 -0.1376 -0.2882
    1WF      WF67563  27.833  19.186   7.954  0.1038  0.0318 -0.1440
    1WF      WF67564  14.567  29.024   1.192 -0.0149 -0.0631  0.3626
    1WF      WF67565  13.123  17.385   7.373  0.1750 -0.1603 -0.2098
    1WF      WF67566   9.417  30.085   1.864 -0.1596 -0.2627 -0.0526
    1WF      WF67567   5.140   7.667   0.553 -0.1258 -0.1413  0.0616
    1WF      WF67568   3.675  28.749   8.936 -0.0929 -0.0018  0.1423
    1WF      WF67569  15.190   3.838   0.652  0.1619 -0.2079 -0.0295
    1WF      WF67570  27.797  22.214   7.598  0.2801  0.0066  0.1762
    1WF      WF67571  10.146   7.955   8.612 -0.0966  0.0481  0.1810
    1WF      WF67572  23.610  10.618   6.378  0.0947  0.2411  0.1788
    1WF      WF67573  14.851  14.132   8.101 -0.2048  0.1308 -0.2291
    1WF      WF67574  20.702  20.590   7.618  0.2717  0.0320  0.0565
    1WF      WF67575  12.014  27.007   6.136  0.0477  0.0511  0.0199
    1WF      WF67576   5.254  29.866   1.215  0.2520 -0.1093  0.2840
    1WF      WF67577  20.587  24.782   8.461 -0.0502  0.2994 -0.1899
    1WF      WF67578  24.863  12.202   7.160 -0.2302  0.0005  0.2484
    1WF      WF67579  21.181   6.528   1.844  0.2442  0.0906  0.3390
    1WF      WF67580  10.696  26.076   1.364 -0.4408 -0.0885  0.1236
    1WF      WF67581  11.649  12.020   1.199  0.1392  0.1308 -0.0487
    1WF      WF67582   0.636  28.908   9.165 -0.3675 -0.0012  0.0038
    1WF      WF67583  26.292  23.056   9.212 -0.1190  0.0898  0.1920
    1WF      WF67584   9.053  22.121   7.525 -0.4871 -0.2625  0.0398
    1WF      WF67585  23.927  30.084   2.269  0.1918  0.0138  0.1364
    1WF      WF67586  21.406  21.719   7.055 -0.0224  0.2531 -0.1431
    1WF      WF67587  15.877  12.694   8.298  0.0918  0.0413  0.1538
    1WF      WF67588   6.463   7.063   0.603 -0.1672  0.0315  0.0527
    1WF      WF67589  26.617  20.945   1.026 -0.1884  0.1027 -0.0763
    1WF      WF67590  20.927   8.048   9.206  0.2583 -0.1220 -0.0835
    1WF      WF67591  26.718  22.064   7.908 -0.4692  0.0007  0.1316
    1WF      WF67592   1.467   7.280   1.354 -0.2728  0.0828 -0.0488
    1WF      WF67593  21.651  15.489   0.393 -0.0145  0.3745  0.5032
    1WF      WF67594  11.452  22.920   1.043  0.0573 -0.0588 -0.2707
    1WF      WF67595   3.360  16.894   7.627 -0.1467 -0.3765 -0.0391
    1WF      WF67596  16.150  10.384   2.887 -0.1307  0.0159 -0.2878
    1WF      WF67597  13.097   5.668   7.619  0.1371 -0.1362 -0.0145
    1WF      WF67598  24.811  13.309   7.386  0.0872 -0.2035 -0.1636
    1WF      WF67599  29.194  11.107   8.407  0.1680  0.2033 -0.1760
    1WF      WF67600   6.981   2.207   2.396  0.1915 -0.1426  0.3260
    1WF      WF67601  24.222  17.113   8.737  0.0340 -0.4694  0.1548
    1WF      WF67602  17.038   5.600   8.711  0.1922 -0.0997 -0.0893
    1WF      WF67603  25.536   2.806   1.718  0.1382  0.0287  0.0163
    1WF      WF67604  18.196   9.895   0.120  0.1535 -0.1378 -0.0205
    1WF      WF67605   5.094   9.259   8.953 -0.2526  0.0000 -0.1429
    1WF      WF67606  22.196  13.888   7.930  0.1385 -0.3823 -0.0098
    1WF      WF67607   2.242  29.248   8.632  0.0949  0.1091  0.2995
    1WF      WF67608   9.867  25.406   1.038 -0.0873  0.0807 -0.3843
    1WF      WF67609  25.724   2.132   7.482  0.0133  0.1940 -0.2023
    1WF      WF67610   8.493   1.011   7.761 -0.5312  0.2150 -0.0881
    1WF      WF67611  17.370   5.043   1.755  0.1839  0.1254  0.2866
    1WF      WF67612   6.271  26.718   1.767 -0.0185  0.2278  0.2696
    1WF      WF67613  21.709  20.863   6.788 -0.1115 -0.1887 -0.1136
    1WF      WF67614  19.133  28.006   3.046  0.1998 -0.2288 -0.1256
    1WF      WF67615  30.215  14.242   0.899  0.0138  0.0537  0.1142
    1WF      WF67616   2.353  16.413   8.552 -0.0677 -0.1258  0.0186
    1WF      WF67617   7.668  18.216   6.659 -0.1821 -0.0764  0.0572
    1WF      WF67618  25.024  16.182   0.805 -0.1682  0.0377 -0.1661
    1WF      WF67619  12.250  25.694   0.044  0.0150  0.0142 -0.0413
    1WF      WF67620  11.276  28.021   6.673  0.0107  0.0875 -0.2153
    1WF      WF67621   0.117  28.988   0.051 -0.2056 -0.2406 -0.0538
    1WF      WF67622  25.056  12.015   6.726  0.0646  0.1835  0.2367
    1WF      WF67623  28.658  21.352   1.210  0.2419 -0.3286  0.1547
    1WF      WF67624  22.966  18.531   7.416 -0.1709 -0.1385  0.1415
    1WF      WF67625  13.750  28.107   0.546 -0.6247  0.2366 -0.4427
    1WF      WF67626  18.746  15.685   8.532  0.1213  0.3969 -0.0542
    1WF      WF67627   7.806   9.045   0.203  0.2400 -0.0614 -0.0193
    1WF      WF67628  22.021  28.844   0.685  0.0197 -0.1630  0.0614
    1WF      WF67629   6.651  26.335   1.518  0.1270  0.0481  0.2693
    1WF      WF67630  13.415  19.362   8.814  0.0632 -0.0862  0.1819
    1WF      WF67631   4.321  13.850   1.149 -0.0275  0.0910 -0.0412
    1WF      WF67632  26.843   8.277   1.108  0.1444  0.0052  0.0095
    1WF      WF67633   9.582   4.789   1.188 -0.2022  0.4313 -0.2624
    1WF      WF67634   1.239  15.450   7.715 -0.0869  0.1577  0.3822
    1WF      WF67635  25.813  29.984   9.024  0.2694 -0.1442 -0.2167
    1WF      WF67636   4.489  12.556   6.627 -0.3413 -0.1001  0.0438
    1WF      WF67637   1.215  20.951   6.765  0.1972 -0.1238  0.0698
    1WF      WF67638   6.215  12.850   7.214  0.2599  0.2408 -0.6411
    1WF      WF67639   5.475  27.014   0.483 -0.0053 -0.1800 -0.0112
    1WF      WF67640  16.996   0.821   3.086 -0.0589 -0.0733  0.3192
    1WF      WF67641  23.778  23.541   9.164  0.2634  0.2613 -0.0174
    1WF      WF67642  20.162  29.717   7.781  0.0288  0.3586 -0.1401
    1WF      WF67643  17.980  23.325   7.944  0.0005 -0.2029 -0.1657
    1WF      WF67644  19.633   9.177   0.069 -0.0566 -0.0039 -0.0201
    1WF      WF67645  27.994  24.778   1.934  0.0921  0.1968  0.0021
    1WF      WF67646   0.105  24.182   0.369  0.1138  0.2362 -0.3780
    1WF      WF67647  17.736  10.730   7.607 -0.1794  0.0264 -0.0842
    1WF      WF67648  13.193  18.005   8.485 -0.2796  0.2792  0.0736
    1WF      WF67649   2.051   3.280   0.243  0.1930 -0.1753  0.0408
    1WF      WF67650  12.607  10.209   7.683 -0.0266 -0.0192  0.2152
    1WF      WF67651   8.380  25.425   2.019  0.3101  0.0235  0.1375
    1WF      WF67652  10.219  25.848   0.062  0.0450  0.1481  0.3227
    1WF      WF67653  16.820   0.040   7.503 -0.1424  0.0893  0.0598
    1WF      WF67654  22.314   8.154   8.210  0.0149 -0.0130  0.1212
    1WF      WF67655  13.428  21.382   8.941  0.1460 -0.0093  0.2725
    1WF      WF67656  26.764  26.615   1.289 -0.2308  0.1919  0.1259
    1WF      WF67657  13.215  13.407   8.669 -0.3364  0.1590 -0.0164
    1WF      WF67658  15.823  13.153   8.626  0.0583  0.1503  0.0203
    1WF      WF67659  14.728   6.450   7.100 -0.1692  0.0770  0.1019
    1WF      WF67660  26.669   6.072   8.389 -0.1912  0.2391  0.0518
    1WF      WF67661   5.267  17.681   0.409  0.0674  0.0681 -0.2571
    1WF      WF67662  17.192   1.209   9.241  0.0508 -0.1836 -0.1978
    1WF      WF67663  27.408   8.162   9.066  0.1118 -0.3434 -0.2590
    1WF      WF67664  20.556  11.630   8.339  0.1544 -0.0252 -0.2854
    1WF      WF67665  19.465  24.339   1.567  0.0083 -0.0617  0.0873
    1WF      WF67666  18.060   5.438   8.140 -0.3002 -0.0485 -0.1255
    1WF      WF67667  13.378   4.994   8.091 -0.1207 -0.0811 -0.0782
    1WF      WF67668   1.361  13.843   8.538  0.2149  0.0285 -0.2042
    1WF      WF67669   3.178  13.183   1.192  0.0288  0.0653  0.1974
    1WF      WF67670   2.323  26.357   2.814 -0.0096 -0.1185  0.0984
    1WF      WF67671  27.571  27.887   2.833  0.0624  0.0547  0.0170
    1WF      WF67672  13.253   1.763   0.809 -0.2876 -0.1732 -0.2348
    1WF      WF67673  18.870   4.989   9.186 -0.1092  0.2075 -0.1614
    1WF      WF67674  10.025  24.426   0.950 -0.0690 -0.1874  0.3117
    1WF      WF67675  20.323   7.366   7.899  0.1594  0.0863  0.1911
    1WF      WF67676  29.142   1.548   2.632  0.1045  0.6100  0.1203
    1WF      WF67677  14.173   4.699   1.686  0.0292 -0.2357 -0.4302
    1WF      WF67678  10.435  13.595   8.943  0.2003  0.0753  0.0243
    1WF      WF67679   6.641  11.607   0.719 -0.3129 -0.2014  0.2948
    1WF      WF67680  23.817   9.706   0.928  0.1407 -0.0680 -0.2949
    1WF      WF67681  12.180   4.774   6.472  0.2846 -0.1714 -0.0139
    1WF      WF67682  17.642   7.894   8.886  0.3696  0.1347 -0.2972
    1WF      WF67683   8.611  27.064   1.212  0.0896 -0.4175  0.1744
    1WF      WF67684  29.798  16.406   0.565  0.0629  0.1629 -0.2120
    1WF      WF67685  24.242  10.714   7.877 -0.0574 -0.0002  0.1942
    1WF      WF67686  26.019  22.196   8.672 -0.1347 -0.1468 -0.0856
    1WF      WF67687  12.249   0.895   8.195  0.2304 -0.0955 -0.1691
    1WF      WF67688   9.183   6.464   8.452  0.1565  0.0026  0.3473
    1WF      WF67689  19.210  18.531   7.588 -0.0108 -0.1660 -0.0916
    1WF      WF67690   8.973  29.520   9.056  0.0485 -0.3003  0.0295
    1WF      WF67691  14.532   8.392   2.135  0.1654  0.0998  0.0757
    1WF      WF67692   0.842  27.836   0.947 -0.1553  0.0372  0.2750
    1WF      WF67693  22.027   7.703   3.137 -0.0448 -0.1540  0.0238
    1WF      WF67694  17.057   3.442   1.912  0.3749 -0.0298 -0.3841
    1WF      WF67695  20.285  15.237   9.090 -0.0367 -0.0993 -0.3546
    1WF      WF67696  12.310  10.970   1.133  0.0989  0.0198 -0.0154
    1WF      WF67697   8.445  23.493   7.946 -0.2499  0.0520  0.1538
    1WF      WF67698  19.880  17.172   8.647  0.1974  0.1194 -0.2176
    1WF      WF67699   4.366   8.074   0.780  0.0432 -0.1181 -0.1458
    1WF      WF67700  18.845   1.361   8.716 -0.0887  0.2176 -0.0676
    1WF      WF67701   0.588  28.733   1.113  0.2692 -0.1927  0.2067
    1WF      WF67702  27.240  18.972   8.380  0.1902  0.1432 -0.2463
    1WF      WF67703   7.643  22.416   1.363  0.3579  0.3000  0.1089
    1WF      WF67704  30.207  20.250   1.881  0.0011  0.0287  0.2655
    1WF      WF67705  24.094   3.829   3.100 -0.0395 -0.3820 -0.2471
    1WF      WF67706  22.324  13.440   0.311 -0.0356  0.1249 -0.0086
    1WF      WF67707   3.762  20.689   8.551 -0.3232  0.0785 -0.0104
    1WF      WF67708  23.520  18.338   1.815 -0.1779  0.0200 -0.1900
    1WF      WF67709  30.088   2.399   1.350 -0.0294 -0.2263 -0.4740
    1WF      WF67710   6.185   2.312   6.931  0.1071  0.1048  0.3354
    1WF      WF67711   4.950  17.036   0.950  0.0155 -0.0130  0.2386
    1WF      WF67712  13.604   7.475   1.543  0.1226  0.1906 -0.1253
    1WF      WF67713   7.383  19.582   0.073 -0.0848 -0.0419 -0.1813
    1WF      WF67714   8.064  28.980   2.046 -0.0401 -0.1496  0.0223
    1WF      WF67715  25.138  14.011   8.597 -0.1372 -0.0310 -0.0419
    1WF      WF67716  20.737   9.081   1.152  0.1617  0.0869 -0.4465
    1WF      WF67717  24.853  28.189   8.606 -0.0763  0.1305  0.0214
    1WF      WF67718  18.963  23.843   1.802  0.0606  0.3085 -0.2799
    1WF      WF67719   9.503  13.706   2.034 -0.1551 -0.0999 -0.1967
    1WF      WF67720  23.411   0.718   0.561  0.0726 -0.0655 -0.0987
    1WF      WF67721  18.109  17.404   0.568 -0.0795  0.1121  0.0517
    1WF      WF67722   3.760   3.508   8.606 -0.1856 -0.2719 -0.0201
    1WF      WF67723  14.533  23.759   8.495 -0.1912  0.0385  0.0366
    1WF      WF67724  21.255   3.171   6.886  0.0167  0.0425  0.0172
    1WF      WF67725  20.660  17.753   5.677 -0.0127 -0.2096 -0.2334
    1WF      WF67726  10.281   3.331   7.561  0.1437  0.1438 -0.1772
    1WF      WF67727  24.626  16.880   8.972  0.0961 -0.2051  0.2028
    1WF      WF67728   3.284   8.177   9.243 -0.2331 -0.0317  0.0393
    1WF      WF67729  23.627  30.066   7.268 -0.3272  0.3080 -0.1846
    1WF      WF67730  22.001  23.645   6.444 -0.1921 -0.0900 -0.1924
    1WF      WF67731  21.428   9.066   0.006 -0.1114  0.2020  0.1278
    1WF      WF67732  12.206  17.832   1.272 -0.0534  0.1689 -0.2392
    1WF      WF67733  20.790  11.535   8.742  0.0754  0.0305  0.0416
    1WF      WF67734  13.681  26.814   1.320 -0.1848  0.1225 -0.1006
    1WF      WF67735  16.357  18.360   0.574 -0.0170 -0.1631  0.0752
    1WF      WF67736  27.356  10.103   8.213 -0.1946 -0.1647 -0.1460
    1WF      WF67737  15.010   8.326   8.230  0.0759  0.0521 -0.1519
    1WF      WF67738  20.333  13.661   1.548 -0.3561  0.1753 -0.1787
    1WF      WF67739  11.774   0.607   7.674 -0.0249 -0.0837 -0.3060
    1WF      WF67740  17.124   2.999   0.449  0.4531 -0.2411 -0.0037
    1WF      WF67741   0.575  13.491   8.877  0.1133 -0.1680 -0.0654
    1WF      WF67742   7.402  11.835   8.903  0.2677 -0.1884 -0.1803
    1WF      WF67743   0.123   7.127   0.435  0.1839  0.2811 -0.0778
    1WF      WF67744   0.493  20.833   9.043 -0.2056 -0.3139  0.0503
    1WF      WF67745  20.282  21.436   7.537 -0.0688  0.1229 -0.2849
    1WF      WF67746  23.692   2.960   0.211 -0.0000  0.1178 -0.1845
    1WF      WF67747  27.814  24.714   2.432 -0.2406 -0.3027  0.1847
    1WF      WF67748  17.884  19.175   5.902 -0.2273  0.0052  0.1026
    1WF      WF67749  19.015  24.212   1.496  0.0984  0.1614 -0.1225
    1WF      WF67750   5.020  26.154   0.563  0.3101  0.1669 -0.2208
    1WF      WF67751  28.502  26.744   0.465  0.0339  0.4127  0.1699
    1WF      WF67752  24.420  27.907   1.634 -0.1343  0.0242  0.1077
    1WF      WF67753  19.113  16.963   1.516  0.2106  0.2290 -0.2933
    1WF      WF67754   3.172   8.512   0.998  0.0401  0.1612  0.0308
    1WF      WF67755  24.735  13.691   7.755  0.0916 -0.2475 -0.2845
    1WF      WF67756  18.930  28.799   8.955 -0.1137  0.0456  0.1826
    1WF      WF67757   7.514   9.771   7.105  0.1509  0.0731 -0.3742
    1WF      WF67758   4.377   9.409   7.824 -0.0030 -0.0602 -0.1366
    1WF      WF67759  22.234  22.337   7.544  0.2527  0.0532  0.1162
    1WF      WF67760   6.574  16.302   8.685 -0.3169  0.0835  0.0167
    1WF      WF67761  10.978   5.106   1.226  0.2446 -0.1271  0.2354
    1WF      WF67762  26.323  21.743   7.818 -0.0631 -0.1261 -0.0492
    1WF      WF67763  28.444   8.480   8.425  0.0437  0.2695  0.3177
    1WF      WF67764  15.680   3.704   1.208  0.1906 -0.1031  0.1578
    1WF      WF67765  16.615  16.690   1.217 -0.0044  0.1240 -0.3775
    1WF      WF67766  25.152   8.128   7.893  0.1439  0.2182  0.0288
    1WF      WF67767  23.287  20.407   5.296 -0.1535  0.0545  0.2816
    1WF      WF67768   1.726   3.887   1.275 -0.1217  0.0820 -0.2619
    1WF      WF67769   9.384  13.932   0.110 -0.1536  0.1614  0.0530
    1WF      WF67770  25.459  17.581   7.934  0.1241 -0.0343  0.0852
    1WF      WF67771  13.848  14.053   1.186 -0.1054  0.0292 -0.0876
    1WF      WF67772  29.463  16.777   0.635 -0.1684  0.2660 -0.0946
    1WF      WF67773  23.127  29.968   7.347  0.0337 -0.0151  0.0016
    1WF      WF67774   0.110  21.447   8.299  0.0137 -0.1539  0.2224
    1WF      WF67775   4.473  24.045   7.786 -0.0791  0.2761 -0.1551
    1WF      WF67776  11.856  21.354   5.930 -0.2438 -0.0311 -0.1028
    1WF      WF67777   7.827   2.314   2.228  0.1513 -0.0081  0.2011
    1WF      WF67778  10.873  21.885   7.348  0.2177 -0.0227  0.1683
    1WF      WF67779  30.075  15.604   1.515 -0.1595  0.0532 -0.2456
    1WF      WF67780   7.276   2.313   1.948 -0.4013  0.1359 -0.1022
    1WF      WF67781  24.517  12.923   7.550  0.2484 -0.1519 -0.0686
    1WF      WF67782   5.898  24.505   8.771  0.1593 -0.0045 -0.2346
    1WF      WF67783  11.706  20.702   8.516  0.2028  0.3020 -0.0623
    1WF      WF67784  15.154  15.594   1.544 -0.0052 -0.2279  0.0075
    1WF      WF67785  26.961  18.535   8.193  0.1106 -0.1061  0.2423
    1WF      WF67786  26.169  22.591   9.013 -0.1477  0.0899  0.0241
    1WF      WF67787   8.517  13.211   1.588 -0.0412  0.0826 -0.1317
    1WF      WF67788  22.275  27.473   0.228  0.2611 -0.0667  0.0209
    1WF      WF67789  18.861   8.729   1.110  0.1545 -0.2138  0.4055
    1WF      WF67790  20.535  22.575   1.733  0.0757 -0.0458 -0.0700
    1WF      WF67791  14.698  15.287   8.339 -0.0539  0.0584 -0.1645
    1WF      WF67792  18.307   9.410   0.907 -0.0075 -0.2461 -0.0075
    1WF      WF67793   9.641   4.983   9.137  0.1066 -0.0407 -0.2086
    1WF      WF67794   4.633  21.566   8.276  0.0243  0.1029  0.0905
    1WF      WF67795  12.194  29.749   6.716 -0.1532 -0.0612  0.0462
    1WF      WF67796  24.512  17.383   9.090  0.2564  0.0864 -0.2594
    1WF      WF67797  26.572   4.220   2.343 -0.0640 -0.1037 -0.2484
    1WF      WF67798  14.180   6.357   1.280 -0.2746 -0.0857  0.0636
    1WF      WF67799   8.127   0.177   8.910  0.0540 -0.3669 -0.2237
    1WF      WF67800  22.276  15.496   6.884 -0.0245  0.3377 -0.0391
    1WF      WF67801   6.435  15.794   0.085 -0.3745 -0.2851 -0.0284
    1WF      WF67802  17.526  11.222   7.579  0.0975 -0.2709 -0.0455
    1WF      WF67803  15.619   9.602   7.868 -0.0723 -0.2359  0.1361
    1WF      WF67804  27.185  14.210   0.796 -0.0975  0.2580 -0.0671
    1WF      WF67805  29.789  11.182   8.810 -0.3382 -0.0973 -0.3927
    1WF      WF67806  17.989   2.727   8.419  0.1001  0.3323  0.3119
    1WF      WF67807  19.094   4.518   9.265  0.0354 -0.2738  0.0716
    1WF      WF67808  21.965   2.933   7.403 -0.0247 -0.3118 -0.3692
    1WF      WF67809   3.149  28.290   2.233 -0.0068 -0.0698 -0.2273
    1WF      WF67810  18.852  11.164   2.354  0.0421  0.2051  0.4598
    1WF      WF67811  13.166  21.835   8.993  0.0191  0.1440  0.2674
    1WF      WF67812  19.790   7.403   7.693  0.2882 -0.0046  0.0082
    1WF      WF67813   6.666   1.420   7.293  0.1041 -0.2095  0.1444
    1WF      WF67814  25.081   7.670   0.102  0.0625  0.2419  0.0549
    1WF      WF67815  10.244   8.455   0.220  0.1574 -0.4386  0.0734
    1WF      WF67816  27.323  28.383   1.175 -0.0582  0.2791 -0.1940
    1WF      WF67817  28.548  29.971   2.252 -0.3702  0.0148  0.2736
    1WF      WF67818  18.894  15.205   1.050 -0.3202 -0.2569  0.2290
    1WF      WF67819  25.188  22.702   0.144 -0.0639  0.1471 -0.3231
    1WF      WF67820   5.736  19.695   1.435  0.0665 -0.0991 -0.0959
    1WF      WF67821   8.642  17.250   8.575  0.1612 -0.0976  0.0108
    1WF      WF67822  12.450  21.133   0.570 -0.0328  0.1546  0.0664
    1WF      WF67823   4.757  12.821   8.722  0.1533  0.1425 -0.0165
    1WF      WF67824  28.889  24.165   0.377 -0.1829  0.0318  0.0103
    1WF      WF67825  12.027   1.988   0.042 -0.2640  0.5260  0.0576
    1WF      WF67826  10.055   3.385   8.020 -0.1530  0.0374  0.0159
    1WF      WF67827  20.735  19.576   0.316  0.2295 -0.1821  0.1450
    1WF      WF67828   3.536   1.733   7.984 -0.0266 -0.1036 -0.2722
    1WF      WF67829  28.255  15.421   0.188 -0.1449  0.0001 -0.2872
    1WF      WF67830  30.352  15.173   7.342 -0.1593  0.3805 -0.1973
    1WF      WF67831  25.696   2.894   8.014 -0.0928  0.1089  0.2757
    1WF      WF67832  10.636   0.811   0.794 -0.0751 -0.2509 -0.0106
    1WF      WF67833  26.060  20.119   5.918 -0.0752  0.0831 -0.0854
    1WF      WF67834  20.882   3.231   8.517 -0.2616  0.0631  0.2118
    1WF      WF67835   1.176  29.021   2.302  0.1882 -0.0041 -0.1184
    1WF      WF67836  17.526  19.373   8.847 -0.4492  0.2150  0.0358
    1WF      WF67837  28.751  24.385   2.334  0.1113 -0.2054 -0.0509
    1WF      WF67838  26.596   6.521   8.179 -0.0043  0.2595  0.2708
    1WF      WF67839  26.232  30.320   9.138  0.0842  0.0516  0.0757
    1WF      WF67840  25.813  13.684   1.854  0.3403  0.0763  0.0366
    1WF      WF67841  25.426   2.445   1.423  0.0313 -0.0299 -0.1226
    1WF      WF67842  23.627   6.178   8.825  0.1058  0.1026  0.2398
    1WF      WF67843  10.091   4.058   0.198 -0.0801 -0.0263  0.0195
    1WF      WF67844   5.569  10.910   7.064  0.0980  0.0840  0.0293
    1WF      WF67845  19.204  27.284   1.489  0.0735  0.1938 -0.1260
    1WF      WF67846  22.357  22.156   0.071  0.0057  0.0614 -0.0680
    1WF      WF67847  13.160  14.336   8.427 -0.0807  0.3230 -0.1425
    1WF      WF67848  13.853  26.814   8.415 -0.1815 -0.3401 -0.1708
    1WF      WF67849  13.275  15.319   0.187  0.2029 -0.3707 -0.1312
    1WF      WF67850  21.836  17.529   7.314 -0.2283 -0.6785  0.3844
    1WF      WF67851  13.993   2.966   0.459 -0.1583 -0.2936  0.0427
    1WF      WF67852  19.923  29.838   7.271  0.1028 -0.0445  0.0997
    1WF      WF67853   9.939   3.673   7.412  0.1630  0.1355  0.1163
    1WF      WF67854  24.400  24.393   8.637  0.2664  0.0835 -0.0247
    1WF      WF67855   3.838  14.156   7.737  0.0768  0.0355 -0.3518
    1WF      WF67856  13.597   2.005   8.092 -0.0780 -0.1205 -0.3500
    1WF      WF67857   8.045  23.568   7.574 -0.1574 -0.2754  0.1483
    1WF      WF67858  24.074  18.109   7.325 -0.0304  0.1574  0.0662
    1WF      WF67859  24.146  28.682   8.371  0.3128 -0.2509 -0.2115
    1WF      WF67860  19.546  19.499   0.265  0.1685 -0.0024  0.0096
    1WF      WF67861  24.984   7.231   9.163 -0.3521 -0.2521 -0.4222
    1WF      WF67862  22.789  11.536   2.181 -0.1324 -0.2356 -0.0005
    1WF      WF67863   1.201   0.194   1.094  0.2579  0.0789  0.3906
    1WF      WF67864  11.900  19.319   0.967  0.0501 -0.2432 -0.0445
    1WF      WF67865   6.368  10.031   7.937  0.2023 -0.1745  0.1596
    1WF      WF67866  10.517   9.740   1.026 -0.3429  0.0834 -0.0310
    1WF      WF67867   5.075  14.328   0.061  0.1123 -0.1760  0.0259
    1WF      WF67868  13.299  11.602   9.172  0.0147  0.0631 -0.1686
    1WF      WF67869   5.207  17.464   0.868  0.1683  0.2343 -0.0552
    1WF      WF67870  13.778  19.269   7.563 -0.0415  0.0900  0.1376
    1WF      WF67871  26.082  27.633   1.742  0.0210 -0.0230  0.0230
    1WF      WF67872  24.632  28.380   1.379 -0.2370  0.1811  0.0835
    1WF      WF67873   7.374   1.405   0.420 -0.1138  0.2448 -0.1196
    1WF      WF67874  27.157   4.214   8.702 -0.1765  0.2926 -0.1820
    1WF      WF67875  21.653  15.692   9.183  0.0394  0.0231 -0.3473
    1WF      WF67876  11.112  24.017   9.010  0.0105  0.1620  0.0727
    1WF      WF67877  10.583  13.364   1.851 -0.0228  0.1648  0.2513
    1WF      WF67878   6.917  11.714   1.184  0.1686 -0.1201 -0.0070
    1WF      WF67879   4.937  13.084   9.192 -0.2422  0.2995  0.2310
    1WF      WF67880   8.814   1.394   7.946 -0.3276  0.4804 -0.1026
    1WF      WF67881   3.087  19.738   0.272 -0.3265 -0.2703 -0.1654
    1WF      WF67882  19.299  14.440   8.821 -0.2175  0.1083 -0.1905
    1WF      WF67883  17.532  12.765   1.452  0.1895  0.2796  0.3390
    1WF      WF67884   2.760  26.786   8.171 -0.1773 -0.2032 -0.2320
    1WF      WF67885  14.259  27.770   7.644 -0.1070  0.1989 -0.1894
    1WF      WF67886  26.784  10.753   6.808  0.1496  0.0937  0.1215
    1WF      WF67887  27.004  30.188   8.662 -0.1542 -0.1184  0.1214
    1WF      WF67888   9.668   9.038   1.694  0.0272  0.1031 -0.2518
    1WF      WF67889   0.251   1.936   1.085  0.0429 -0.2727 -0.2975
    1WF      WF67890  25.005  16.709   9.185 -0.0423 -0.2144  0.1605
    1WF      WF67891  21.278  29.432   1.314  0.2565  0.1141 -0.0192
    1WF      WF67892  11.609  24.272   1.047 -0.3905  0.2333 -0.4835
    1WF      WF67893   5.351  11.758   0.453  0.0456 -0.1958  0.0784
    1WF      WF67894  16.950  19.541   5.515  0.2046  0.0580 -0.0438
    1WF      WF67895  10.406  18.792   0.394 -0.0271 -0.0661 -0.2568
    1WF      WF67896  23.604  23.225   8.754  0.0794 -0.1464 -0.1387
    1WF      WF67897  23.399  18.044   0.723  0.1697 -0.0149 -0.0238
    1WF      WF67898  16.582  24.261   7.182  0.0631 -0.4531 -0.2794
    1WF      WF67899  21.614  30.113   8.104 -0.1763 -0.2406 -0.4176
    1WF      WF67900   6.766  27.285   0.882  0.1557 -0.2560  0.1254
    1WF      WF67901  25.791  14.454   7.591  0.0801  0.0264 -0.1452
    1WF      WF67902  15.519   5.764   9.074  0.2018  0.1471 -0.1746
    1WF      WF67903   8.962  18.277   8.031 -0.1670 -0.3297 -0.0676
    1WF      WF67904   2.036   6.313   1.526 -0.4467  0.0792 -0.4757
    1WF      WF67905   3.926  27.211   6.556  0.0147 -0.0419 -0.1100
    1WF      WF67906  12.067  25.445   7.195 -0.3018 -0.2302 -0.1139
    1WF      WF67907  17.448  17.843   7.175 -0.0030  0.1767 -0.0431
    1WF      WF67908  30.277  27.354   3.497  0.1941 -0.0064 -0.1559
    1WF      WF67909   4.326  13.215   7.864  0.0279  0.1784 -0.0916
    1WF      WF67910  24.053  30.204   1.048  0.2101 -0.0985 -0.4147
    1WF      WF67911  23.880  13.860   2.460 -0.2628 -0.0962 -0.1920
    1WF      WF67912  21.128  15.589   6.875  0.2964  0.1768 -0.0768
    1WF      WF67913   3.419   2.341   2.349 -0.0185  0.1227  0.0438
    1WF      WF67914   8.401  21.170   9.165  0.2188  0.0223  0.1598
    1WF      WF67915  12.733   7.523   8.211 -0.1877  0.0984 -0.0052
    1WF      WF67916  11.893   1.284   8.228  0.2534 -0.0457 -0.0115
    1WF      WF67917  22.951  27.612   1.850  0.1960 -0.1854 -0.1865
    1WF      WF67918  28.869  13.152   6.490 -0.1261  0.0883 -0.1505
    1WF      WF67919   5.893  22.509   8.005 -0.0230  0.1143  0.2179
    1WF      WF67920  16.596  20.934   8.707  0.2554 -0.0117  0.1312
    1WF      WF67921  11.007   0.203   7.386  0.0796 -0.0276 -0.0935
    1WF      WF67922   9.100   9.985   8.274  0.0280  0.1271  0.0123
    1WF      WF67923  25.399   4.892   8.789 -0.1101  0.1150  0.0140
    1WF      WF67924   8.954  29.204   8.694 -0.2510 -0.1470  0.1877
    1WF      WF67925  17.175  24.386   8.479  0.1590 -0.0621  0.1017
    1WF      WF67926  29.186  15.396   8.506 -0.0576 -0.0066 -0.0485
    1WF      WF67927  18.460  25.351   0.120 -0.0315  0.0362  0.1388
    1WF      WF67928  19.980   3.732   1.958  0.1692 -0.0500  0.2424
    1WF      WF67929   7.050  30.159   1.893  0.2858  0.0812 -0.0796
    1WF      WF67930  15.915  18.426   9.023 -0.0480 -0.1530 -0.3082
    1WF      WF67931   9.506  16.873   8.382 -0.0083  0.0185  0.2077
    1WF      WF67932  11.260  23.890   1.086 -0.2561 -0.0889  0.0987
    1WF      WF67933  25.400   8.607   7.847 -0.0627  0.2299 -0.1129
    1WF      WF67934  14.969   1.819   0.672  0.4106  0.1683 -0.2377
    1WF      WF67935  19.320  20.316   7.494 -0.1993  0.0027 -0.4162
    1WF      WF67936  25.660   9.458   9.133  0.2684  0.3109  0.1966
    1WF      WF67937  23.664   2.337   0.268 -0.0759  0.2423  0.0721
    1WF      WF67938  15.400  12.319   9.110 -0.0054  0.3030 -0.1804
    1WF      WF67939  29.585  24.414   2.079 -0.0500  0.1429 -0.0965
    1WF      WF67940  25.889   9.233   0.331 -0.1280  0.0874  0.1461
    1WF      WF67941  17.595   1.262   1.292  0.0543 -0.0368  0.0600
    1WF      WF67942  20.995  21.137   5.926 -0.1133  0.0725  0.1207
    1WF      WF67943  23.273  28.074   0.655  0.1300 -0.2557  0.0171
    1WF      WF67944  12.252   3.933   0.565  0.1674 -0.0392 -0.1341
    1WF      WF67945  29.429  14.330   0.725  0.1008  0.0337  0.0520
    1WF      WF67946   0.675  13.560   0.890  0.1995 -0.2833  0.0794
    1WF      WF67947   9.608   8.571   1.814 -0.0051  0.0064 -0.3285
    1WF      WF67948   9.065  25.057   7.005  0.0538 -0.0724 -0.0248
    1WF      WF67949  28.973   5.501   1.510 -0.0264 -0.0261 -0.1880
    1WF      WF67950   4.746   2.336   8.402  0.1175 -0.1614 -0.0880
    1WF      WF67951  10.042  24.052   1.764 -0.1926  0.1333 -0.1228
    1WF      WF67952  21.904  15.084   6.734  0.1488 -0.1313 -0.0307
    1WF      WF67953  19.676   0.217   3.097  0.1000  0.1230 -0.0594
    1WF      WF67954   5.146   2.214   0.152  0.2907  0.0563  0.1127
    1WF      WF67955   9.456  30.032   6.884  0.2059  0.4218 -0.1745
    1WF      WF67956   4.462  16.397   8.009  0.0297 -0.2251  0.0604
    1WF      WF67957   7.967  18.257   1.216 -0.0046 -0.0444  0.5263
    1WF      WF67958   7.887  25.047   8.582  0.3461  0.1614 -0.0982
    1WF      WF67959  27.612  21.266   7.980 -0.0210  0.1150 -0.0743
    1WF      WF67960  30.297   7.935   7.775 -0.1633  0.0412  0.0417
    1WF      WF67961   4.952   7.318   8.005  0.0256  0.1306  0.4030
    1WF      WF67962  21.899  25.823   1.278 -0.0650  0.0550 -0.0405
    1WF      WF67963   2.263  24.856   9.268  0.0449  0.1795  0.0958
    1WF      WF67964   7.972   4.799   0.351  0.1813 -0.2989 -0.4572
    1WF      WF67965  14.872  28.990   8.456 -0.1194 -0.1247  0.2145
    1WF      WF67966  17.616  23.833   0.135 -0.2910 -0.1504  0.0413
    1WF      WF67967  15.101  26.515   6.368  0.1326  0.1148  0.0162
    1WF      WF67968  27.129  10.571   7.942 -0.0771 -0.2082  0.0354
    1WF      WF67969  15.751  13.285   1.839  0.0125 -0.1402 -0.5703
    1WF      WF67970   6.584  21.522   6.785 -0.0349 -0.0173 -0.0791
    1WF      WF67971  23.582  29.977   7.747 -0.1671  0.1839 -0.1218
    1WF      WF67972   6.421   4.182   8.149 -0.5934  0.0572  0.2663
    1WF      WF67973  26.905  27.369   2.181 -0.2399  0.2607 -0.1753
    1WF      WF67974   5.254  29.587   0.754 -0.2530 -0.2599 -0.2462
    1WF      WF67975  15.795  29.914   7.451 -0.1880  0.0800  0.1250
    1WF      WF67976  23.657  26.198   6.695 -0.2442 -0.0211  0.2512
    1WF      WF67977  16.399  15.092   1.937  0.2265 -0.0339  0.0173
    1WF      WF67978  10.216  27.517   2.171 -0.1814 -0.0869 -0.3567
    1WF      WF67979  21.581  17.203   7.051  0.1713  0.1698 -0.1555
    1WF      WF67980   8.217  25.386   8.067 -0.1148  0.0492  0.0010
    1WF      WF67981  24.631  10.104   0.546 -0.0377 -0.1571 -0.1677
    1WF      WF67982  29.995   4.541   7.051 -0.1727  0.0557  0.1155
    1WF      WF67983  24.727  23.572   1.191 -0.1400  0.1001  0.0253
    1WF      WF67984   5.046  21.145   0.126  0.0504 -0.3144  0.0309
    1WF      WF67985  21.900   8.916   0.049  0.0510  0.0493  0.0246
    1WF      WF67986  28.283   7.519   7.922 -0.3777 -0.1161  0.2116
    1WF      WF67987  19.877  28.642   6.761  0.0459 -0.1563 -0.0183
    1WF      WF67988   3.375   9.695   2.704 -0.0566 -0.1993  0.0621
    1WF      WF67989  20.333   2.414   7.750  0.1648  0.0396 -0.0440
    1WF      WF67990  12.944   9.075   2.082 -0.0204  0.3327 -0.2457
    1WF      WF67991   2.236  29.650   1.169  0.0523  0.3139  0.1153
    1WF      WF67992  20.272  24.862   0.256 -0.2248  0.0120 -0.2394
    1WF      WF67993  29.577  15.464   8.220 -0.1155 -0.4240 -0.3346
    1WF      WF67994  16.882   8.094   2.725  0.3662  0.2851 -0.0472
    1WF      WF67995  27.340  19.573   1.206 -0.3490  0.0286 -0.2283
    1WF      WF67996   3.438  23.821   8.593 -0.0639 -0.2088 -0.2274
    1WF      WF67997   6.849   6.099   1.454  0.0179 -0.1782 -0.0841
    1WF      WF67998  17.999  19.448   0.574  0.0068  0.0535 -0.3709
    1WF      WF67999   5.955   0.115   7.606 -0.2274 -0.2419 -0.0876
    1WF      WF68000  28.054   7.641   0.585  0.1083 -0.0381 -0.3707
    1WF      WF68001  23.568  22.908   1.360  0.2894 -0.2243 -0.0794
    1WF      WF68002   1.104  27.236   6.951  0.0800  0.3553  0.3277
    1WF      WF68003  10.125  18.402   8.086 -0.2661 -0.0676  0.1495
    1WF      WF68004  21.674   8.041   2.672 -0.2109 -0.0625 -0.0214
    1WF      WF68005  16.069  26.801   7.294 -0.3279 -0.3869  0.0176
    1WF      WF68006   9.396  27.854   9.054 -0.1264 -0.0835  0.1667
    1WF      WF68007  11.594  17.723   1.783 -0.0915  0.4968 -0.3500
    1WF      WF68008   2.116  25.277   1.408  0.3089  0.0953  0.1110
    1WF      WF68009  24.036  24.883   8.753 -0.1735 -0.3670 -0.0955
    1WF      WF68010  19.512  22.809   8.905 -0.0369 -0.1496 -0.3837
    1WF      WF68011  26.035  25.796   2.715  0.2478  0.1883  0.0989
    1WF      WF68012  16.039  27.353   1.432  0.0565  0.0024 -0.2446
    1WF      WF68013  11.353  16.780   7.592  0.0352 -0.2568  0.1445
    1WF      WF68014  17.336  20.236   1.951  0.1808 -0.1355 -0.1944
    1WF      WF68015   5.430  24.288   0.649 -0.2092 -0.0061 -0.1042
    1WF      WF68016   5.239  27.592   3.293 -0.2322  0.1221  0.1021
    1WF      WF68017  26.442  18.485   8.221 -0.1113 -0.1209  0.0621
    1WF      WF68018  17.513   8.496   0.542 -0.0524 -0.0198  0.4221
    1WF      WF68019   4.638  16.852   8.293 -0.2493 -0.0379 -0.0932
    1WF      WF68020  17.365   2.599   0.692 -0.2244  0.1377  0.0869
    1WF      WF68021   9.597   2.534   0.885  0.0990  0.0012 -0.2363
    1WF      WF68022   3.695  24.347   8.657  0.0972  0.1504 -0.3423
    1WF      WF68023  28.951  25.795   7.943  0.2007 -0.3388  0.0355
    1WF      WF68024  10.035  12.618   1.599 -0.0535  0.1651 -0.0251
    1WF      WF68025  26.094  15.795   6.289  0.0459  0.1174  0.0107
    1WF      WF68026  11.007  25.754   6.465 -0.0591  0.0062  0.1249
    1WF      WF68027  13.761   4.153   8.671  0.0014 -0.1798  0.1159
    1WF      WF68028  29.141   6.086   1.773  0.4036  0.1823  0.0426
    1WF      WF68029  17.808   9.003   8.393  0.0823  0.0308 -0.0237
    1WF      WF68030  19.195  24.114   8.248  0.2871 -0.0714 -0.0767
    1WF      WF68031  28.410   1.838   1.130 -0.1861  0.3185  0.3342
    1WF      WF68032  13.490   2.313   7.678  0.1747 -0.3173 -0.0027
    1WF      WF68033  18.604  16.909   9.037  0.1464 -0.3235 -0.1019
    1WF      WF68034  13.647  25.926   1.504 -0.1067  0.0268  0.0396
    1WF      WF68035   6.849  29.299   1.052  0.1552 -0.0571 -0.2063
    1WF      WF68036  26.236   2.840   7.720 -0.4129  0.4441 -0.4233
    1WF      WF68037  18.766   1.120   1.773  0.1981  0.4687 -0.2222
    1WF      WF68038   9.561  22.861   5.693  0.1820 -0.0202 -0.1681
    1WF      WF68039  17.235  15.034   7.916  0.2841  0.0499 -0.1466
    1WF      WF68040   5.365   7.566   6.323 -0.0321  0.0262  0.0461
    1WF      WF68041  28.485   2.390   0.345 -0.2963  0.1959  0.1054
    1WF      WF68042  13.299  24.708   0.405  0.4760  0.2378 -0.0983
    1WF      WF68043  15.595   2.086   0.088  0.1215 -0.2220  0.3495
    1WF      WF68044  11.597  16.585   0.367  0.0126 -0.0687 -0.1209
    1WF      WF68045  23.439  11.339   7.755  0.1819 -0.0120 -0.1262
    1WF      WF68046  14.626   2.811   8.961  0.2592 -0.2612 -0.2945
    1WF      WF68047   4.752   6.016   8.770 -0.0098  0.0659 -0.0305
    1WF      WF68048  12.446  22.712   0.748 -0.1381 -0.0433 -0.1323
    1WF      WF68049  25.144   3.162   0.006 -0.2239  0.3164 -0.3679
    1WF      WF68050  14.719  29.799   6.666  0.3002  0.2104 -0.0251
    1WF      WF68051  22.379   5.571   0.801 -0.1315  0.1438 -0.3029
    1WF      WF68052  26.532  16.259   0.365  0.0060  0.1762 -0.0125
    1WF      WF68053  23.669  28.438   8.293 -0.0497 -0.1885 -0.1020
    1WF      WF68054  26.452   4.924   4.048 -0.1347  0.0664  0.4639
    1WF      WF68055  11.839  12.288   0.747  0.1835  0.0401  0.1212
    1WF      WF68056  21.744  16.933   7.494 -0.2308  0.3011  0.3127
    1WF      WF68057  21.170  23.879   8.504 -0.0433 -0.0594 -0.1961
    1WF      WF68058  25.703  12.581   0.338  0.2570 -0.4347  0.2318
    1WF      WF68059  17.384   1.283   6.466  0.0516 -0.0848 -0.1744
    1WF      WF68060  10.779  21.432   7.074 -0.0136  0.2124 -0.1688
    1WF      WF68061   3.073  21.623   0.761  0.1326  0.1430 -0.3097
    1WF      WF68062   1.499   0.527   8.650 -0.1808  0.1095 -0.0278
    1WF      WF68063  20.890  25.510   7.568 -0.0717  0.0851  0.0744
    1WF      WF68064   4.408   1.928   8.387 -0.0389  0.1022 -0.0658
    1WF      WF68065  16.796   2.219   8.483  0.0397 -0.3593 -0.3142
    1WF      WF68066  14.672  18.250   0.602  0.0411 -0.1983 -0.0809
    1WF      WF68067  10.830   0.529   7.113 -0.3322 -0.1584 -0.0562
    1WF      WF68068  21.392  16.583   6.141  0.0941  0.1780  0.0783
    1WF      WF68069   0.773   5.545   7.842  0.0274 -0.1604 -0.2209
    1WF      WF68070  17.500  12.283   1.550  0.0851  0.1839  0.0383
    1WF      WF68071  10.785  21.220   6.596  0.1223  0.0020  0.0912
    1WF      WF68072  15.862  27.326   7.780 -0.1291  0.3702  0.3261
    1WF      WF68073  23.293  11.748   7.471 -0.5294 -0.0370  0.0544
    1WF      WF68074  16.897  14.048   1.090 -0.0570  0.0582 -0.2122
    1WF      WF68075  20.277  15.019   0.262 -0.1126  0.2154 -0.1659
    1WF      WF68076  29.357  12.155   0.164  0.1178 -0.1105 -0.1281
    1WF      WF68077  15.497   1.584   6.139  0.1113 -0.1303  0.0931
    1WF      WF68078  10.661  21.707   0.956  0.0775 -0.0214 -0.2607
    1WF      WF68079  21.870   0.451   1.678  0.1840  0.2012 -0.1672
    1WF      WF68080   5.575  21.431   6.838 -0.1564 -0.1046  0.0185
    1WF      WF68081  26.734  11.623   8.005 -0.5239  0.0997 -0.1697
    1WF      WF68082   7.204  12.181   1.174  0.1536  0.1206 -0.1647
    1WF      WF68083  11.565  13.375   9.142  0.0596  0.0223  0.3305
    1WF      WF68084  21.409  27.152   0.158  0.1481 -0.1737  0.1895
    1WF      WF68085  10.720   4.769   1.505  0.0339 -0.0688  0.0792
    1WF      WF68086  21.416  21.249   6.961 -0.0142  0.4248  0.1752
    1WF      WF68087  21.979  15.623   0.687 -0.1524 -0.0515  0.0731
    1WF      WF68088  29.103   5.269   0.836 -0.0492  0.0260  0.2763
    1WF      WF68089  17.064  28.219   6.463  0.0390  0.1172 -0.3881
    1WF      WF68090  25.465  15.715   1.401 -0.0275 -0.0651 -0.0700
    1WF      WF68091   0.505   3.291   6.224 -0.1538 -0.2407 -0.1710
    1WF      WF68092   9.683  21.279   8.248  0.0584 -0.0139  0.2088
    1WF      WF68093  16.398   8.741   5.789  0.0330  0.0013  0.0402
    1WF      WF68094  29.753  27.778   1.334 -0.3490  0.1073  0.1637
    1WF      WF68095   8.082  19.128   7.701 -0.1472 -0.0881  0.0613
    1WF      WF68096   0.930   7.153   0.486  0.1229  0.0687 -0.4010
    1WF      WF68097  15.145   2.420   8.976  0.0683 -0.3296  0.0893
    1WF      WF68098  22.528  12.519   6.402 -0.2793  0.4797 -0.1305
    1WF      WF68099  27.258  15.818   7.876 -0.0880  0.3039 -0.1277
    1WF      WF68100  24.678   8.370   1.817 -0.1626 -0.0744 -0.2194
    1WF      WF68101  11.517   2.001   0.204  0.0007  0.1855 -0.0506
    1WF      WF68102  21.098   6.276   0.941 -0.0036  0.2621 -0.1090
    1WF      WF68103   3.399  25.147   8.168  0.0836  0.0781  0.0876
    1WF      WF68104  15.792  14.842   0.458 -0.0211 -0.0051  0.0107
    1WF      WF68105   3.242  27.980   1.857  0.1033 -0.2622  0.0023
    1WF      WF68106  26.752   2.832   8.393 -0.4689 -0.2209 -0.0697
    1WF      WF68107  13.131  19.731   8.885 -0.2327 -0.2946  0.1607
    1WF      WF68108  15.335  24.221   1.223 -0.0126 -0.0257  0.0338
    1WF      WF68109  13.428  24.205   8.146  0.0642 -0.2626 -0.0367
    1WF      WF68110  27.616  11.989   8.807  0.0066  0.1508 -0.0623
    1WF      WF68111  24.189  20.778   7.893 -0.0562 -0.0298  0.0683
    1WF      WF68112  13.659  25.099   0.233 -0.0425  0.0341  0.1014
    1WF      WF68113  20.040  15.950   7.234 -0.0222 -0.0846  0.0347
    1WF      WF68114  19.730  18.707   7.577 -0.2059  0.1035 -0.4340
    1WF      WF68115  21.514  17.294   9.221 -0.1401 -0.0842  0.2382
    1WF      WF68116  22.573   9.128   8.518  0.1202 -0.0406 -0.0757
    1WF      WF68117  13.306  12.455   8.817 -0.2695 -0.0776 -0.0509
    1WF      WF68118   5.206   4.349   2.079 -0.1963 -0.0809  0.1307
    1WF      WF68119   8.435   9.510   1.581 -0.1795  0.3142 -0.0759
    1WF      WF68120  20.173  11.052   9.003  0.1201  0.0632  0.1671
    1WF      WF68121   3.917  22.772   7.158  0.0533  0.2039 -0.2443
    1WF      WF68122  12.051   5.435   0.342 -0.0577  0.0361  0.2400
    1WF      WF68123   3.607  21.216   6.255  0.2887 -0.2649  0.2806
    1WF      WF68124  16.258  11.078   8.823 -0.2832  0.0576 -0.3875
    1WF      WF68125  19.970  12.834   6.756  0.2930 -0.3664 -0.1355
    1WF      WF68126  29.353  10.987   8.900 -0.2516 -0.1931  0.4686
    1WF      WF68127  23.418   3.223   7.978  0.0199 -0.0244 -0.1357
    1WF      WF68128  24.938  18.357   8.541  0.2443 -0.1349 -0.2154
    1WF      WF68129  14.385  28.221   0.850 -0.2351 -0.0116  0.2589
    1WF      WF68130  21.144  17.452   8.384 -0.1529 -0.1989  0.0157
    1WF      WF68131  23.463   9.144   8.159  0.5053  0.1908  0.6525
    1WF      WF68132  29.648   4.243   7.023  0.6048  0.0588 -0.1421
    1WF      WF68133   9.615   6.861   6.525  0.0696  0.0565 -0.1831
    1WF      WF68134  24.328   7.392   1.382  0.1647  0.2661  0.0521
    1WF      WF68135  25.157  22.315   1.123  0.3397  0.3161  0.0375
    1WF      WF68136  11.727  27.585   1.843 -0.1434  0.1433 -0.3429
    1WF      WF68137  30.308   8.562   8.340 -0.0865 -0.0639  0.1005
    1WF      WF68138  27.954   1.140   8.441  0.2149 -0.0535 -0.1608
    1WF      WF68139   7.922  14.004   7.124 -0.0594  0.1649  0.1337
    1WF      WF68140  11.586  11.873   0.636  0.0825 -0.2478  0.3481
    1WF      WF68141  21.894   1.531   8.357  0.0934 -0.0833 -0.0969
    1WF      WF68142  10.579  10.812   0.206 -0.2122 -0.2034 -0.0731
    1WF      WF68143   3.047  10.613   1.192  0.0908 -0.2246  0.2488
    1WF      WF68144  10.455  14.914   8.334 -0.0732  0.1124  0.1016
    1WF      WF68145  13.044  27.782   8.857 -0.0372 -0.2729 -0.0136
    1WF      WF68146   9.072  25.295   6.587 -0.2717  0.0597 -0.1605
    1WF      WF68147  24.633   7.609   7.416  0.0010 -0.2370 -0.4831
    1WF      WF68148  18.749   9.249   0.832 -0.2181  0.0732 -0.1008
    1WF      WF68149  11.968  25.197   0.242  0.0385 -0.0117 -0.0478
    1WF      WF68150   8.867  15.671   6.706  0.0656  0.1312 -0.1377
    1WF      WF68151  26.571   0.001   3.720 -0.1425 -0.1994  0.0813
    1WF      WF68152  10.695  15.691   0.236 -0.2692 -0.1682  0.1148
    1WF      WF68153  17.260   7.590   8.689 -0.2602  0.0824 -0.2979
    1WF      WF68154  14.591  25.106   7.606 -0.0993 -0.0553  0.0091
    1WF      WF68155  26.641   6.484   0.602  0.2215 -0.2921  0.0588
    1WF      WF68156  10.002  26.419   8.456  0.0587 -0.3023  0.3908
    1WF      WF68157  27.256  13.112   0.695  0.1403  0.0959  0.1379
    1WF      WF68158   7.015  27.997   7.897 -0.0189 -0.1594 -0.1960
    1WF      WF68159  16.273  23.819   0.158 -0.0873  0.3388 -0.2557
    1WF      WF68160   7.743  11.436   8.676 -0.0133 -0.1178  0.1316
    1WF      WF68161  12.610  20.885   1.011  0.3394 -0.1568  0.1187
    1WF      WF68162  17.004  19.187   8.098 -0.3051  0.0151  0.2171
    1WF      WF68163  25.386   1.368   9.249  0.2223 -0.4138 -0.0677
    1WF      WF68164   6.524   9.904   8.912  0.1629 -0.2277 -0.1062
    1WF      WF68165  10.770  10.140   0.764  0.1653 -0.1015  0.0092
    1WF      WF68166   8.602  16.992   5.799 -0.1644  0.0086  0.1769
    1WF      WF68167  12.609  24.392   1.351  0.1987  0.1662 -0.2131
    1WF      WF68168  22.795  28.090   0.662  0.2496  0.1661  0.2781
    1WF      WF68169  24.767  14.549   0.162 -0.1934  0.0513 -0.0597
    1WF      WF68170  12.462  26.801   8.848 -0.6355 -0.1761 -0.0760
    1WF      WF68171  26.780  15.745   8.931  0.1378  0.2002 -0.1299
    1WF      WF68172  28.471   2.210   0.804 -0.0474  0.0388 -0.4416
    1WF      WF68173  25.407  10.232   8.593  0.2060 -0.2202  0.3130
    1WF      WF68174   7.552   0.994   0.302 -0.0459  0.2773  0.1858
    1WF      WF68175  11.008  14.605   6.966  0.0478 -0.0754  0.0794
    1WF      WF68176   8.979   5.801   9.272 -0.1443  0.0799 -0.0439
    1WF      WF68177  10.693  26.211   0.806  0.0350  0.0678  0.1209
    1WF      WF68178   0.373  16.364   1.377  0.0701 -0.0709  0.2698
    1WF      WF68179   0.642  29.268   2.235 -0.0688  0.3483 -0.1320
    1WF      WF68180   8.466  21.829   6.927 -0.0728  0.3875  0.2649
    1WF      WF68181  22.028   2.259   3.708  0.2723  0.0476  0.0742
    1WF      WF68182   0.228  14.990   8.444  0.1474  0.1960  0.0141
    1WF      WF68183  24.052  17.527   8.976 -0.0345 -0.1414  0.0682
    1WF      WF68184  29.698  13.009   8.218  0.0141  0.1275 -0.3602
    1WF      WF68185   2.740   0.884   9.067 -0.1356 -0.2253 -0.1482
    1WF      WF68186  21.445  26.635   0.082 -0.1473 -0.2243  0.3262
    1WF      WF68187  16.556  16.168   1.172 -0.1028 -0.0663 -0.2852
    1WF      WF68188  27.245  23.098   1.719 -0.0953 -0.0424 -0.1383
    1WF      WF68189  27.045  21.802   0.946  0.1075  0.4305  0.0750
    1WF      WF68190  15.105  14.547   0.657  0.0672  0.2018 -0.1217
    1WF      WF68191  19.715   9.735   9.040  0.0516 -0.1285  0.2884
    1WF      WF68192  14.927  19.714   1.448  0.3467 -0.0781  0.1340
    1WF      WF68193  27.090   8.290   0.611  0.1903 -0.0521 -0.0120
    1WF      WF68194  15.649   0.578   8.703 -0.1887 -0.3208  0.2413
    1WF      WF68195  17.276  25.782   2.546 -0.2807 -0.1741 -0.0319
    1WF      WF68196  23.011   1.011   1.738  0.2205  0.0764 -0.0533
    1WF      WF68197   4.392   9.619   8.435 -0.0455  0.0040  0.0579
    1WF      WF68198  24.893  26.878   9.250  0.0294 -0.0329 -0.0442
    1WF      WF68199   1.816  21.588   0.280 -0.1773  0.3257  0.1850
    1WF      WF68200   3.006  17.706   0.759 -0.0829  0.1286 -0.3522
    1WF      WF68201  22.852  28.653   0.590  0.3313 -0.0019  0.3297
    1WF      WF68202  25.436   9.229   6.180 -0.1251 -0.1150  0.0943
    1WF      WF68203  29.902  10.200   0.842  0.0817  0.0982 -0.1861
    1WF      WF68204   9.839  18.621   8.409 -0.0741 -0.3005  0.0860
    1WF      WF68205  11.031  10.214   8.616  0.1571  0.1458  0.1026
    1WF      WF68206  27.232   1.105   0.288  0.1638 -0.1262 -0.1969
    1WF      WF68207  12.648  10.021   0.862 -0.1255 -0.2915  0.0266
    1WF      WF68208   1.221   5.850   2.305 -0.0712  0.1008  0.0301
    1WF      WF68209   0.075  22.322   2.442 -0.0846  0.1619  0.0010
    1WF      WF68210   9.916   4.443   1.021  0.0795 -0.0628  0.0963
    1WF      WF68211  23.652  16.070   9.023  0.1449  0.2837 -0.3434
    1WF      WF68212  15.941  14.257   7.724 -0.0232  0.0638  0.0385
    1WF      WF68213  10.931  27.990   1.032  0.3188  0.1115  0.1016
    1WF      WF68214  15.137  21.174   8.973 -0.0715  0.2245 -0.0040
    1WF      WF68215  13.379  12.219   8.394  0.1520  0.3320  0.1157
    1WF      WF68216  29.822   6.224   8.849 -0.1163  0.0428 -0.0051
    1WF      WF68217  23.057  20.174   0.727  0.1008 -0.0160  0.1103
    1WF      WF68218  10.368   2.741   1.447 -0.1660  0.1171  0.0076
    1WF      WF68219  18.919  27.062   8.136 -0.3404 -0.1985  0.0881
    1WF      WF68220  24.355  29.857   0.804  0.2604 -0.0078  0.0992
    1WF      WF68221  10.279  12.124   1.749  0.0052 -0.1868  0.0246
    1WF      WF68222  26.529   4.529   1.682  0.3332 -0.0327  0.1117
    1WF      WF68223  17.906  16.044   2.801  0.1123 -0.0024 -0.1015
    1WF      WF68224  13.913   5.744   8.171  0.1961 -0.2083 -0.0027
    1WF      WF68225  29.401  20.963   1.009  0.0295 -0.0841  0.2168
    1WF      WF68226  24.529   5.589   8.226 -0.1205  0.1403  0.1144
    1WF      WF68227  23.829  27.208   0.875 -0.4249  0.1424  0.0511
    1WF      WF68228   2.057  12.175   9.091 -0.2211 -0.1595 -0.0541
    1WF      WF68229   1.540  11.536   1.246 -0.2639  0.1955  0.0353
    1WF      WF68230  19.417  17.362   7.863  0.3045 -0.1903 -0.3468
    1WF      WF68231  25.593  27.995   0.099  0.2519  0.1284  0.2464
    1WF      WF68232   4.966  15.376   0.625 -0.0284 -0.0371 -0.3463
    1WF      WF68233  17.489  14.844   7.500  0.0199  0.2832 -0.3557
    1WF      WF68234   5.415   7.096   7.916  0.1496  0.0803 -0.2463
    1WF      WF68235  25.959   0.804   0.797 -0.2706 -0.5165  0.0082
    1WF      WF68236  10.014  12.658   8.708  0.2237  0.3158  0.0171
    1WF      WF68237  25.386  23.545   8.075 -0.0323 -0.2487 -0.1287
    1WF      WF68238  11.474  24.520   9.180  0.3183  0.0887 -0.0217
    1WF      WF68239  22.479  10.828   0.205  0.2183  0.2004  0.3238
    1WF      WF68240  25.174  26.604   7.030 -0.2130 -0.0174  0.3069
    1WF      WF68241  13.353  18.512   8.727 -0.4567 -0.0134 -0.0438
    1WF      WF68242   3.554  16.764   8.238  0.1722 -0.2661  0.0294
    1WF      WF68243  28.245   2.713   2.172  0.2317 -0.2216  0.1573
    1WF      WF68244  20.011   4.820   1.504  0.2038 -0.0621  0.0778
    1WF      WF68245  23.113   7.989   0.772  0.0023 -0.0582  0.1168
    1WF      WF68246   0.850  10.128   8.454 -0.1376  0.1753  0.1455
    1WF      WF68247  21.312  22.938   8.392  0.0813 -0.0643 -0.1918
    1WF      WF68248  16.883  14.508   0.962 -0.0397 -0.0874  0.1471
    1WF      WF68249  19.832  14.264   6.616 -0.1174  0.2035 -0.2678
    1WF      WF68250  22.856  15.019   0.142  0.0748  0.0801  0.1614
    1WF      WF68251   8.484  20.645   9.105 -0.2747 -0.0456  0.0584
    1WF      WF68252  23.298  18.626   7.040 -0.0447  0.1985  0.0969
    1WF      WF68253  27.276  11.447   0.939  0.0326 -0.0494 -0.2340
    1WF      WF68254  14.222   6.811   8.987  0.1992 -0.0205 -0.0825
    1WF      WF68255   9.798  26.120   8.072 -0.1814 -0.0722 -0.2019
    1WF      WF68256  26.813   4.183   9.070 -0.2280 -0.0584  0.2302
    1WF      WF68257  25.257   7.990   8.967  0.2338  0.0905 -0.1516
    1WF      WF68258   6.573  22.833   1.798  0.0948 -0.2350 -0.0069
    1WF      WF68259  10.149  26.004   8.733  0.2109 -0.1370 -0.3258
    1WF      WF68260  11.434  17.140   1.514  0.1230  0.2358  0.2166
    1WF      WF68261  26.230  18.500   7.121 -0.0998 -0.4180 -0.1467
    1WF      WF68262  28.941  11.408   8.086 -0.3997 -0.0952  0.1050
    1WF      WF68263   6.829  29.257   1.624  0.2958  0.1547  0.1041
    1WF      WF68264  14.365  14.204   1.092 -0.1682  0.0523 -0.1232
    1WF      WF68265  13.789  12.024   8.643 -0.2024  0.0588  0.1573
    1WF      WF68266  26.260  28.621   7.083 -0.0581  0.1031 -0.0448
    1WF      WF68267  11.114  16.456   6.330 -0.0991 -0.0098  0.1533
    1WF      WF68268   8.475  28.806   7.006  0.0726  0.2544  0.1955
    1WF      WF68269  21.016   3.702   8.363 -0.0547  0.1562 -0.0462
    1WF      WF68270  16.407  16.922   7.614 -0.2980  0.0932 -0.1541
    1WF      WF68271  12.565  27.113   2.029  0.0502 -0.2476 -0.0477
    1WF      WF68272  24.887   0.089   7.180 -0.0736 -0.2342  0.0975
    1WF      WF68273   6.227   1.083   6.977 -0.2638  0.0018 -0.1374
    1WF      WF68274  28.188  11.665   6.922  0.0531  0.2036 -0.1524
    1WF      WF68275   8.832  23.779   7.775 -0.4325 -0.2513 -0.0515
    1WF      WF68276  11.099   5.504   8.231  0.1551  0.1146  0.2218
    1WF      WF68277  21.433  25.751   8.883  0.1410  0.2404 -0.0558
    1WF      WF68278   9.040   6.930   0.833  0.0653 -0.0223  0.0747
    1WF      WF68279  13.045   4.909   1.574 -0.1950  0.0824 -0.2661
    1WF      WF68280  17.462  11.066   8.534  0.2354 -0.2179 -0.3244
    1WF      WF68281   7.384  13.814   0.494  0.2868 -0.1108 -0.2457
    1WF      WF68282  17.440   8.077   7.319  0.2127 -0.1851 -0.0798
    1WF      WF68283  24.318  17.839   7.628 -0.1311 -0.2914  0.1974
    1WF      WF68284  27.560   3.530   3.821 -0.0351 -0.2547  0.2482
    1WF      WF68285   8.856   9.225   7.913  0.0864 -0.0639  0.0351
    1WF      WF68286  13.221  29.869   6.982  0.1386 -0.1207  0.0890
    1WF      WF68287   6.863   6.618   1.473  0.4053  0.4342  0.3472
    1WF      WF68288  27.651   4.185   8.902  0.0616 -0.1257  0.1178
    1WF      WF68289   2.254  28.405   6.727 -0.3515  0.2075  0.1074
    1WF      WF68290  22.552   0.781   7.849 -0.2203  0.0221  0.1500
    1WF      WF68291   7.858  25.521   8.363 -0.1686 -0.0918  0.1911
    1WF      WF68292   4.444  22.040   9.128 -0.0765 -0.1419 -0.0108
    1WF      WF68293  28.715   5.175   0.491  0.0329 -0.1544  0.1217
    1WF      WF68294   1.957  12.347   7.954  0.1532 -0.0493 -0.0257
    1WF      WF68295  22.256  25.510   7.991  0.0727  0.2406 -0.0673
    1WF      WF68296   9.576  12.710   1.596  0.2328 -0.4215 -0.0440
    1WF      WF68297   4.934  24.287   7.651 -0.1003  0.1426  0.2176
    1WF      WF68298   4.046  13.639   0.770 -0.1834  0.1098  0.0038
    1WF      WF68299  29.815   2.896   1.214  0.0543 -0.1885 -0.2179
    1WF      WF68300   7.887  18.266   1.709 -0.2109 -0.1248 -0.2147
    1WF      WF68301  12.919  14.026   0.400  0.1191 -0.0166  0.1380
    1WF      WF68302  29.713  28.028   8.401 -0.0610 -0.0933 -0.0370
    1WF      WF68303  10.330  10.122   1.341  0.0309  0.2376  0.0142
    1WF      WF68304   0.820   7.878   7.812 -0.0156  0.0075 -0.2104
    1WF      WF68305   7.855   0.608   0.471 -0.2162  0.1978  0.4073
    1WF      WF68306   0.169   4.719   8.710  0.1167  0.1949  0.0748
    1WF      WF68307  15.289  18.286   7.729  0.0013  0.3412  0.1517
    1WF      WF68308   5.397   6.492   7.042  0.2693 -0.0697  0.4554
    1WF      WF68309  10.093  23.981   1.205 -0.2689  0.1922  0.2728
    1WF      WF68310   8.770  18.724   7.935  0.0159  0.2276 -0.1039
    1WF      WF68311  15.458  22.031   0.855 -0.0662 -0.2488  0.3364
    1WF      WF68312  16.599   5.816   8.578  0.1538  0.1157  0.2156
    1WF      WF68313   8.291  23.466   8.713  0.1320 -0.0572 -0.1021
    1WF      WF68314   3.972   2.447   2.299  0.0118  0.0082 -0.1204
    1WF      WF68315   0.282   4.313   0.856 -0.0625  0.0489 -0.0585
    1WF      WF68316   6.128  26.145   1.685  0.0782  0.0490 -0.1249
    1WF      WF68317  10.407   1.375   7.696  0.0121  0.1408  0.0560
    1WF      WF68318   8.523   4.547   8.280  0.1511 -0.0641  0.0196
    1WF      WF68319  18.393  21.833   2.615  0.1105 -0.3092  0.1706
    1WF      WF68320  27.901  11.079   2.700  0.1547 -0.0143  0.1142
    1WF      WF68321  13.163  28.034   8.434 -0.0967 -0.0741  0.2972
    1WF      WF68322   9.689   7.780   3.184  0.0061 -0.1411  0.3126
    1WF      WF68323  29.174   9.703   9.038 -0.1119  0.1262 -0.0521
    1WF      WF68324   4.116  27.766   1.188  0.2537 -0.3500 -0.1587
    1WF      WF68325  22.923   3.886   7.669 -0.0079 -0.1733  0.0085
    1WF      WF68326  19.842  12.384   6.574  0.3879  0.7950  0.0519
    1WF      WF68327  22.789  21.378   7.986 -0.0988  0.3214 -0.0458
    1WF      WF68328   7.645  27.417   8.971  0.0239  0.1391  0.3217
    1WF      WF68329  17.379  20.874   7.324 -0.1022  0.0992 -0.0898
    1WF      WF68330  22.073  14.322   8.262 -0.0234 -0.0461 -0.0977
    1WF      WF68331   7.712  12.454   9.167  0.1214  0.0815  0.0947
    1WF      WF68332  19.229  12.387   8.100  0.0919  0.1052  0.0280
    1WF      WF68333   7.865  21.131   9.193  0.2583 -0.2913 -0.2027
    1WF      WF68334   7.095   9.743   1.124  0.0515  0.2709 -0.0730
    1WF      WF68335  20.462  14.451   1.307  0.2360 -0.0338 -0.1769
    1WF      WF68336  25.706   9.973   8.989  0.0658  0.0245 -0.1794
    1WF      WF68337  27.121   8.107   8.673  0.3146 -0.0937 -0.1607
    1WF      WF68338  16.991  22.089   9.069  0.1101  0.0048 -0.0218
    1WF      WF68339  28.534  12.420   0.542 -0.1131  0.0085 -0.5235
    1WF      WF68340  30.149  17.816   0.037 -0.2163  0.0561 -0.0236
    1WF      WF68341   1.421  22.873   7.514 -0.1379  0.1996 -0.1233
    1WF      WF68342   3.675  29.269   9.240 -0.1106 -0.0252 -0.0337
    1WF      WF68343  12.339  29.350   8.937  0.0520 -0.3589 -0.0846
    1WF      WF68344  12.730   0.972   8.462  0.0134  0.1376 -0.2907
    1WF      WF68345  18.321  18.290   0.559  0.2159 -0.1729  0.1525
    1WF      WF68346   9.034  10.382   6.475 -0.1482  0.4636 -0.0450
    1WF      WF68347  17.461   2.446   6.778 -0.1033  0.2639 -0.0343
    1WF      WF68348   4.203  22.479   9.030  0.0418  0.0856  0.3155
    1WF      WF68349   0.653  18.127   7.553 -0.1789  0.0016 -0.1296
    1WF      WF68350   0.864  26.705   1.181 -0.0183 -0.0840 -0.1016
    1WF      WF68351  24.335  27.509   2.686  0.1641  0.5687 -0.2428
    1WF      WF68352   7.088  12.153   8.446 -0.1356  0.1375 -0.2385
    1WF      WF68353  16.913  20.294   1.759  0.1819 -0.1327  0.1758
    1WF      WF68354  13.651  24.147   1.680 -0.3518 -0.5010  0.1352
    1WF      WF68355   1.341  11.109   0.345 -0.2081  0.3286 -0.0860
    1WF      WF68356  17.790  21.275   9.143  0.4528  0.1506  0.0106
    1WF      WF68357  28.613  28.651   8.882 -0.5225 -0.1379 -0.1598
    1WF      WF68358   3.807  26.003   8.269  0.0241 -0.0190  0.1441
    1WF      WF68359  12.107  24.279   1.177 -0.0499  0.1040  0.1440
    1WF      WF68360   3.230  23.399   8.408 -0.0185  0.2532  0.1416
    1WF      WF68361  26.583  19.049   1.908 -0.0672 -0.0733 -0.0533
    1WF      WF68362  17.697   2.201   0.594 -0.1121 -0.1248 -0.0124
    1WF      WF68363   0.502   0.138   7.578 -0.2802  0.1738  0.0030
    1WF      WF68364  25.011  14.274   8.036 -0.0403  0.0517  0.1947
    1WF      WF68365   2.082  24.482   9.045 -0.0169  0.2093 -0.2181
    1WF      WF68366  13.916  10.277   0.845 -0.1334  0.2601 -0.0215
    1WF      WF68367   1.277   0.643   1.490  0.0633 -0.2797 -0.0325
    1WF      WF68368  10.734   6.214   1.255 -0.2037 -0.0001 -0.1375
    1WF      WF68369  25.503  16.889   9.168 -0.0567 -0.0273  0.2991
    1WF      WF68370   1.567  22.531   7.878  0.0040  0.0596  0.1704
    1WF      WF68371   3.051   6.648   8.002  0.0451 -0.0662 -0.1224
    1WF      WF68372  24.441  29.355   0.795  0.0757  0.0853  0.0442
    1WF      WF68373  12.961   0.249   2.133 -0.1161 -0.2211 -0.0200
    1WF      WF68374   4.179   8.133   0.345  0.2687 -0.0158 -0.2270
    1WF      WF68375   1.098  28.031   8.851 -0.1914  0.2859  0.3854
    1WF      WF68376  20.807   0.368   7.591 -0.1123  0.1728  0.3022
    1WF      WF68377  13.814  17.529   1.630  0.3433 -0.2392 -0.1977
    1WF      WF68378  20.759  17.251   7.961 -0.0761 -0.3137 -0.3254
    1WF      WF68379  29.729   6.559   8.496  0.0406  0.0661  0.2247
    1WF      WF68380  24.105  10.895   7.402  0.1720 -0.0014  0.2879
    1WF      WF68381   4.082   1.356   8.437 -0.3422  0.1156  0.0322
    1WF      WF68382  22.379  26.748   2.384  0.1259  0.0461 -0.2019
    1WF      WF68383  25.892  17.344   7.894 -0.0679 -0.2285  0.0613
    1WF      WF68384   8.009  27.479   8.580  0.1758 -0.1133 -0.1626
    1WF      WF68385  14.140  25.344   0.694  0.0999  0.1890  0.0888
    1WF      WF68386  17.941  27.972   9.018  0.0958  0.1036  0.1157
    1WF      WF68387   0.374   7.630   7.741 -0.2003  0.0278  0.0819
    1WF      WF68388  29.047  24.533   1.919  0.2039 -0.3522 -0.0222
    1WF      WF68389  11.009  21.014   7.308 -0.0480  0.1612  0.1201
    1WF      WF68390  20.462  23.182   7.304 -0.2348 -0.3126  0.0699
    1WF      WF68391  21.376  16.945   8.142  0.0708  0.1303 -0.0551
    1WF      WF68392  12.707  22.103   1.325 -0.1686 -0.4642  0.1370
    1WF      WF68393   0.897  23.303   1.437  0.1513  0.0296  0.2578
    1WF      WF68394  19.358  10.638   7.909  0.1255  0.2871 -0.2509
    1WF      WF68395  28.889   6.805   7.053 -0.0246  0.1661 -0.1291
    1WF      WF68396  27.398  10.983   7.863  0.1071 -0.1038 -0.1914
    1WF      WF68397  24.336  14.175   7.029 -0.0816  0.1022  0.1121
    1WF      WF68398  15.720  29.657   9.049  0.1866 -0.1344 -0.0425
    1WF      WF68399   1.270  24.595   7.771  0.4481  0.0621 -0.2120
    1WF      WF68400   3.506   9.011   6.341  0.2196 -0.3230  0.2137
    1WF      WF68401  28.988   6.008   2.983 -0.2148  0.2601  0.1773
    1WF      WF68402   4.352  19.128   9.007 -0.1390  0.2521  0.3554
    1WF      WF68403  21.464  17.442   0.435 -0.0811  0.1483 -0.1162
    1WF      WF68404  15.555  10.235   7.731  0.0924  0.1828  0.1158
    1WF      WF68405  10.961   9.657   8.731 -0.3976 -0.0084 -0.5847
    1WF      WF68406  24.953  23.699   6.080  0.0940  0.0177 -0.1446
    1WF      WF68407  19.380   9.978   6.088  0.4291  0.1340 -0.0711
    1WF      WF68408   0.522  11.619   2.559  0.5031 -0.0578 -0.4307
    1WF      WF68409   3.660  12.191   0.924  0.2486  0.0085 -0.0746
    1WF      WF68410  14.277  17.830   0.564  0.0199  0.2187 -0.0916
    1WF      WF68411  15.341   1.780   0.377 -0.0771  0.1538 -0.2312
    1WF      WF68412  28.912  26.671   7.725 -0.1976 -0.1771  0.0848
    1WF      WF68413   0.936  25.272   3.395  0.1854 -0.0586 -0.3692
    1WF      WF68414   6.065  26.366   8.846  0.3260 -0.1485  0.2450
    1WF      WF68415   0.861  19.716   1.313  0.0915 -0.0342  0.0761
    1WF      WF68416  15.006  24.185   7.806 -0.3794  0.0924  0.0898
    1WF      WF68417   1.949   3.417   7.491  0.0398 -0.4296 -0.1272
    1WF      WF68418  12.567   1.993   0.044 -0.0698 -0.1089  0.1081
    1WF      WF68419  10.882  21.477   7.593 -0.0235 -0.2903  0.0624
    1WF      WF68420  11.460  19.388   0.008 -0.0803  0.1133 -0.3197
    1WF      WF68421  15.379  29.831   8.671 -0.0157  0.4359 -0.0182
    1WF      WF68422  22.580   6.672   0.081  0.1261 -0.0198  0.2115
    1WF      WF68423  21.431  22.658   1.749 -0.0182 -0.1241  0.0829
    1WF      WF68424  24.492   7.903   6.892 -0.3342 -0.0627  0.3453
    1WF      WF68425  22.618   6.692   1.314 -0.1010 -0.1383  0.3845
    1WF      WF68426   8.748  10.528   1.933  0.0422 -0.1772  0.2502
    1WF      WF68427  16.273  28.917   1.313  0.1491 -0.2444 -0.1975
    1WF      WF68428  21.789   1.588   0.158  0.1346  0.0072 -0.2988
    1WF      WF68429   2.586  22.589   0.901 -0.1519 -0.0180  0.2568
    1WF      WF68430  16.851  14.100   8.953 -0.0899 -0.2560 -0.0422
    1WF      WF68431  26.001  29.232   1.060 -0.2557  0.0668 -0.0320
    1WF      WF68432  14.743  19.291   1.278 -0.0150  0.0303  0.1484
    1WF      WF68433  23.349  27.991   8.262  0.0052  0.0459  0.2458
    1WF      WF68434   8.585   9.462   1.114 -0.0178 -0.1234 -0.1596
    1WF      WF68435  29.824   1.263   1.836 -0.2366  0.0415 -0.0147
    1WF      WF68436   6.298  17.995   7.868  0.1997  0.0742  0.0249
    1WF      WF68437  10.220   4.673   8.921 -0.0615 -0.1222 -0.1730
    1WF      WF68438  15.978   0.360   0.335  0.1655 -0.3698 -0.0430
    1WF      WF68439  11.136  23.396   0.994 -0.0751  0.0328 -0.0095
    1WF      WF68440   4.743   2.994   7.145 -0.1127  0.0953 -0.1914
    1WF      WF68441  22.901   5.182   1.693  0.1173  0.1323  0.1202
    1WF      WF68442   6.183  16.568   7.351 -0.0786 -0.1490  0.2188
    1WF      WF68443   5.480   6.732   1.581 -0.2355  0.0764 -0.0759
    1WF      WF68444  21.290  18.640   1.447 -0.1828 -0.1913 -0.2968
    1WF      WF68445  23.154   5.438   7.423  0.0689 -0.5642  0.0071
    1WF      WF68446  19.519  25.471   8.127 -0.1456  0.3407 -0.0227
    1WF      WF68447   8.448  12.631   7.405  0.4305  0.0420  0.1534
    1WF      WF68448  24.641  15.462   7.047  0.1921  0.1487 -0.0835
    1WF      WF68449  28.603  14.008   1.994  0.0243  0.1394 -0.1102
    1WF      WF68450   8.775  15.951   0.362 -0.0100 -0.2506  0.1352
    1WF      WF68451  20.433  15.558   0.781  0.3318  0.1154  0.0001
    1WF      WF68452  13.526   4.227   6.127 -0.0019  0.1570  0.1784
    1WF      WF68453  27.225   5.562   0.795  0.0649  0.1413 -0.1435
    1WF      WF68454  10.193  19.376   0.977 -0.1761 -0.2062 -0.3186
    1WF      WF68455  19.526  25.725   2.848  0.0574  0.0623 -0.1467
    1WF      WF68456  27.825   6.837   0.537  0.0403  0.4293 -0.0770
    1WF      WF68457   7.872  20.455   8.220  0.0638 -0.2355  0.2976
    1WF      WF68458  15.402  18.666   2.398  0.0761 -0.1504 -0.0620
    1WF      WF68459  11.273   4.313   7.174 -0.0117  0.1829  0.1318
    1WF      WF68460   6.424  19.745   8.902  0.2396 -0.0397  0.3235
    1WF      WF68461  26.071  26.921   8.002  0.2567  0.1648  0.2853
    1WF      WF68462  29.454  24.000   1.857 -0.0388  0.1605 -0.3977
    1WF      WF68463   3.834  22.890   7.664  0.0364 -0.0847  0.2926
    1WF      WF68464   6.029  22.722   0.514  0.1521 -0.2152  0.0723
    1WF      WF68465  22.843   2.251   9.212  0.0497 -0.0172  0.1685
    1WF      WF68466  28.417  11.264   7.972  0.1769 -0.0090 -0.0390
    1WF      WF68467  13.751   5.361   0.552  0.1490 -0.0570 -0.1934
    1WF      WF68468   0.863  13.873   8.655 -0.2094 -0.0224 -0.0370
    1WF      WF68469  15.611  29.631   7.783  0.0260  0.0312 -0.1299
    1WF      WF68470  25.477  27.903   0.554  0.3278  0.1054 -0.1580
    1WF      WF68471  21.195   7.960   7.847 -0.0157 -0.1391  0.1033
    1WF      WF68472   7.706  19.207   0.115 -0.1858 -0.1331  0.0561
    1WF      WF68473  21.828  30.011   2.671 -0.0344 -0.1227  0.1815
    1WF      WF68474  15.801   0.507   9.160 -0.0389 -0.2035  0.0143
    1WF      WF68475  30.250   7.448   7.783 -0.0301  0.0154  0.3644
    1WF      WF68476  15.032  21.875   0.547 -0.0458 -0.1990 -0.0371
    1WF      WF68477   8.808   4.707   1.447  0.1085  0.1826 -0.0567
    1WF      WF68478   6.367  29.315   1.366 -0.3571 -0.1703  0.0147
    1WF      WF68479   6.951  13.299   8.115 -0.3713 -0.0340  0.0956
    1WF      WF68480  14.014  29.171   0.504  0.3781  0.1725  0.1295
    1WF      WF68481  25.759  12.873   0.719  0.0942  0.0141  0.0701
    1WF      WF68482  17.421  11.317   8.095 -0.0184 -0.0971  0.0945
    1WF      WF68483   0.047   7.326   2.399 -0.1671 -0.2386 -0.0957
    1WF      WF68484   2.615   3.373   0.458  0.1388  0.2651 -0.1994
    1WF      WF68485  21.149  26.133   8.637  0.1057 -0.2286 -0.4025
    1WF      WF68486  22.582  10.097   2.177 -0.1105 -0.1575  0.3754
    1WF      WF68487  12.912   4.539   1.233  0.0826 -0.1117  0.0725
    1WF      WF68488   2.476  19.265   7.110 -0.0161  0.0218  0.0965
    1WF      WF68489   2.444  21.658   9.260 -0.2732  0.0436  0.0773
    1WF      WF68490  17.571   1.524   2.557  0.2374  0.0459 -0.1057
    1WF      WF68491   9.182  25.366   7.917 -0.0789  0.0558 -0.1114
    1WF      WF68492   2.246   7.532   9.140  0.0601  0.1748  0.1459
    1WF      WF68493  27.302   8.390   1.059  0.1262 -0.3718 -0.0479
    1WF      WF68494  14.038   0.618   8.722  0.1933 -0.3100  0.2782
    1WF      WF68495   9.454   7.112   0.611  0.2791  0.4187 -0.1085
    1WF      WF68496  18.445  29.348   1.267 -0.0364  0.3875 -0.2018
    1WF      WF68497   7.691  30.163   8.808  0.0798 -0.3135  0.1098
    1WF      WF68498  16.017  27.104   8.264 -0.1178 -0.4256 -0.1547
    1WF      WF68499  13.402  16.942   8.687 -0.2300 -0.2604 -0.0770
    1WF      WF68500   9.956  26.667   0.824  0.0124  0.0607  0.2126
    1WF      WF68501  20.157  17.133   9.076 -0.2293  0.3402 -0.1550
    1WF      WF68502   8.845  20.327   0.583 -0.1437 -0.0154  0.1722
    1WF      WF68503   3.797   8.100   6.368  0.0143  0.0409 -0.0690
    1WF      WF68504  25.580  16.142   1.139  0.1023  0.3049 -0.0288
    1WF      WF68505  25.278   6.978   1.436 -0.2827  0.0450 -0.3134
    1WF      WF68506  21.540  23.535   8.400 -0.1264  0.2502 -0.0445
    1WF      WF68507  19.082  10.550   2.278 -0.3680  0.1437 -0.2374
    1WF      WF68508  18.406  22.891   6.646  0.1642 -0.0270  0.3269
    1WF      WF68509  26.670  29.388   2.989 -0.0594 -0.0208 -0.1477
    1WF      WF68510  28.505   9.438   8.430  0.0483 -0.0769 -0.1370
    1WF      WF68511  11.634  13.237   8.664 -0.0012 -0.1004  0.1357
    1WF      WF68512  16.315  18.202   0.026 -0.2600  0.1218  0.2877
    1WF      WF68513  21.616  12.405   0.530 -0.1292 -0.1832 -0.0123
    1WF      WF68514   6.087  16.370   0.442  0.3410  0.0300 -0.1400
    1WF      WF68515  29.641  26.911   1.344  0.3281  0.2739 -0.0334
    1WF      WF68516   5.357   0.948   2.977  0.2533 -0.1046  0.1660
    1WF      WF68517  28.003   5.214   1.907 -0.0942  0.1570 -0.0898
    1WF      WF68518   8.717  20.628   0.954 -0.0283  0.2424  0.1324
    1WF      WF68519   9.631  18.919   8.822  0.0629  0.2372 -0.0935
    1WF      WF68520  17.712  30.268   3.700 -0.2815  0.0352 -0.2344
    1WF      WF68521  28.960  30.245   8.424 -0.1607  0.1863 -0.1190
    1WF      WF68522  14.361  20.948   0.444 -0.0871  0.2375 -0.1245
    1WF      WF68523   1.321   6.718   0.613 -0.0311 -0.3883 -0.3180
    1WF      WF68524   1.454  28.099   9.181 -0.1091  0.0751 -0.1575
    1WF      WF68525  27.146  29.172   8.378 -0.2466 -0.3649  0.2083
    1WF      WF68526  11.720  20.253   2.045 -0.0563  0.1036  0.0782
    1WF      WF68527  28.122  10.792   0.460  0.0862 -0.1924 -0.1067
    1WF      WF68528   7.473  19.923   8.946 -0.2106  0.2486 -0.0542
    1WF      WF68529  15.344  21.291   0.682  0.2253  0.0222 -0.0700
    1WF      WF68530   1.016   1.284   7.508  0.0720 -0.3060 -0.3698
    1WF      WF68531  15.399  13.860   0.318  0.1967 -0.2629  0.0551
    1WF      WF68532  21.082  23.554   2.085  0.3823 -0.3348  0.0054
    1WF      WF68533  20.076  26.867   2.055 -0.0831 -0.0349 -0.0619
    1WF      WF68534  29.899  17.184   2.404 -0.0006  0.2674  0.1324
    1WF      WF68535  26.772   3.947   7.800 -0.2640 -0.1701  0.1387
    1WF      WF68536   2.211   3.942   7.726  0.2619  0.0016 -0.3228
    1WF      WF68537   8.300  25.120   1.609 -0.0668 -0.1807  0.0507
    1WF      WF68538  15.742  20.176   8.985 -0.3249 -0.2123  0.3969
    1WF      WF68539  13.652  28.399   2.022  0.1028 -0.2447 -0.1934
    1WF      WF68540  16.319   2.523   8.981 -0.0346 -0.0748  0.3366
    1WF      WF68541  25.968  29.349   1.919  0.4440 -0.2579  0.2445
    1WF      WF68542  30.153  25.498   1.478 -0.0917  0.0339 -0.4569
    1WF      WF68543   0.960   7.926   8.931 -0.1584 -0.3003 -0.2424
    1WF      WF68544  21.026   6.884   9.137  0.0632 -0.2418 -0.0051
    1WF      WF68545  20.518   0.046   7.890 -0.3295  0.3441 -0.2021
    1WF      WF68546  14.276   9.897   0.942  0.0505 -0.0187  0.1248
    1WF      WF68547   6.943  21.720   2.118  0.1340  0.0459 -0.2059
    1WF      WF68548  13.729  19.203   0.712 -0.2395 -0.3449  0.0076
    1WF      WF68549  16.121  13.560   1.983 -0.1122 -0.0891  0.3840
    1WF      WF68550   1.794   8.274   8.310  0.3144  0.2852  0.0934
    1WF      WF68551  25.778   2.620   7.600 -0.2622  0.1161  0.0693
    1WF      WF68552  23.107  28.410   0.932 -0.0744 -0.5503  0.0119
    1WF      WF68553  13.703  20.220   5.321 -0.0075 -0.1055 -0.2732
    1WF      WF68554   1.667  12.983   1.397  0.0021  0.0304  0.0973
    1WF      WF68555  28.775  30.320   1.131  0.0892 -0.3416 -0.0125
    1WF      WF68556  13.968  18.880   7.257 -0.1018 -0.3645 -0.0525
    1WF      WF68557   5.658   6.735   8.250 -0.2567 -0.1808  0.0158
    1WF      WF68558  22.852  22.075   8.968 -0.0807 -0.0683 -0.4602
    1WF      WF68559   5.861   6.238   7.210 -0.1951  0.0850 -0.1802
    1WF      WF68560  17.149  24.586   8.024  0.2800 -0.0834  0.1212
    1WF      WF68561   2.808   3.658   0.818 -0.1441 -0.4160 -0.1902
    1WF      WF68562  28.940  12.106   0.500  0.1742 -0.1254  0.1108
    1WF      WF68563  26.735  18.519   7.042 -0.2189 -0.1497 -0.0073
    1WF      WF68564  24.532  11.182   0.402 -0.1212 -0.0265 -0.3708
    1WF      WF68565  15.180   9.484   8.145 -0.1332  0.2627 -0.0435
    1WF      WF68566   5.090  29.777   2.162  0.0522  0.0623  0.0383
    1WF      WF68567  13.175  11.550   7.404 -0.3575  0.3303  0.0107
    1WF      WF68568  18.348   9.882   0.650  0.3292  0.3347 -0.0407
    1WF      WF68569  10.960  21.746   6.769 -0.4239  0.1479  0.0369
    1WF      WF68570  27.581  28.797   1.313 -0.2357  0.0064 -0.2495
    1WF      WF68571   3.959   9.559   7.313 -0.3273  0.0012  0.1210
    1WF      WF68572  28.580  14.164   8.723  0.0023  0.1114 -0.0601
    1WF      WF68573  17.646   2.931   7.592 -0.0684  0.0867 -0.0957
    1WF      WF68574  14.828   5.688   7.818  0.0561  0.0418  0.0833
    1WF      WF68575  30.281  25.327   0.166 -0.1623 -0.0537  0.3357
    1WF      WF68576  21.649   3.331   7.335  0.1712  0.1103 -0.1373
    1WF      WF68577  21.016  24.137   7.614 -0.1642 -0.2157  0.1700
    1WF      WF68578   8.454  21.063   0.913 -0.2585  0.1739  0.3135
    1WF      WF68579   6.951  27.690   1.604  0.2609 -0.0700 -0.1608
    1WF      WF68580  21.088  12.365   1.559  0.0193  0.0012  0.0118
    1WF      WF68581  10.703   3.930   0.345 -0.2938 -0.2384 -0.2384
    1WF      WF68582   1.842   3.681   7.939 -0.1870  0.0320 -0.0037
    1WF      WF68583  21.013  22.306   1.635  0.0642  0.0973 -0.0958
    1WF      WF68584  24.467  11.521   0.053  0.1843 -0.5499 -0.0410
    1WF      WF68585   7.898  24.099   7.528  0.3076  0.0265  0.0591
    1WF      WF68586  10.160  13.114   1.671 -0.1330  0.0622  0.0043
    1WF      WF68587  26.947  16.426   2.083 -0.0168  0.3698 -0.0269
    1WF      WF68588   1.441   1.053   7.544  0.2740  0.1857 -0.2002
    1WF      WF68589  17.418   5.038   1.169 -0.0455 -0.0950 -0.1751
    1WF      WF68590  10.565   6.919   8.314 -0.0718  0.0974  0.1440
    1WF      WF68591  25.133   5.832   9.023  0.3682 -0.2485  0.0546
    1WF      WF68592  16.656  18.886   7.812 -0.0609 -0.0839 -0.0885
    1WF      WF68593  11.175  24.175   7.836  0.6986  0.0669  0.0333
    1WF      WF68594  16.746  15.000   2.318  0.1695  0.0092  0.0852
    1WF      WF68595  14.476  23.509   2.600  0.2664  0.2328 -0.0091
    1WF      WF68596  23.581  17.330   2.442  0.0360  0.2986 -0.0332
    1WF      WF68597  11.874  22.645   0.997  0.2526 -0.1334  0.0364
    1WF      WF68598  23.028   5.054   2.216  0.2493 -0.4116 -0.1073
    1WF      WF68599  16.436   6.181   7.366  0.1236  0.0444  0.1794
    1WF      WF68600  29.642  27.331   1.601 -0.2406 -0.0225  0.2170
    1WF      WF68601   8.915   8.719   7.815  0.0527  0.1888 -0.0303
    1WF      WF68602   0.137  25.569   6.491 -0.2806  0.0784 -0.1349
    1WF      WF68603  13.969  24.874   8.238  0.3368 -0.2160 -0.1300
    1WF      WF68604  12.009  28.622   1.148  0.0997  0.2196  0.0606
    1WF      WF68605  19.746  27.796   7.431  0.0462  0.1385  0.0517
    1WF      WF68606  24.156   6.557   2.451 -0.0950  0.0190 -0.0256
    1WF      WF68607  21.850  15.988   0.273  0.0294  0.1248 -0.0901
    1WF      WF68608   9.982  11.541   9.229 -0.0523 -0.1073 -0.0955
    1WF      WF68609  14.456  20.213   7.863 -0.0961 -0.3899  0.5250
    1WF      WF68610  24.907  26.929   8.519 -0.0150 -0.1303  0.0346
    1WF      WF68611   4.563  28.584   0.383  0.3226 -0.1328  0.0620
    1WF      WF68612  20.670   9.811   8.650 -0.1406 -0.3393 -0.1550
    1WF      WF68613  29.573  23.933   7.715  0.0175  0.2246  0.0685
    1WF      WF68614  29.716   5.528   0.516  0.0725  0.0026 -0.1658
    1WF      WF68615  29.434   0.141   8.771 -0.0545  0.0906  0.3602
    1WF      WF68616  11.477  12.368   8.818  0.2596 -0.1474  0.1646
    1WF      WF68617  21.875  24.439   2.890  0.0590  0.0005 -0.0507
    1WF      WF68618   1.904   4.984   6.405 -0.0891  0.0599 -0.1067
    1WF      WF68619   3.027  17.443   1.268  0.0133 -0.3084 -0.1051
    1WF      WF68620   0.239  23.702   0.624  0.1484 -0.0459  0.4265
    1WF      WF68621   1.355   2.269   0.080 -0.2242  0.0450 -0.1549
    1WF      WF68622   0.609  14.032   0.716 -0.2937 -0.1416  0.0107
    1WF      WF68623  25.592  20.388   6.752  0.1708 -0.2606 -0.0565
    1WF      WF68624  12.655   8.694   0.107  0.2451 -0.2475  0.3390
    1WF      WF68625  24.910   5.543   3.397  0.2901  0.0340 -0.1181
    1WF      WF68626  12.448  18.071   0.532 -0.1161  0.0177 -0.0542
    1WF      WF68627  29.384  13.184   8.590 -0.1534  0.0623  0.1312
    1WF      WF68628  22.702  28.341   7.879  0.0235  0.0700  0.3166
    1WF      WF68629  16.701   2.799   8.908 -0.1167  0.2387  0.0339
    1WF      WF68630   6.906  29.757   8.667  0.3015 -0.0892  0.1207
    1WF      WF68631   9.153   0.580   8.906 -0.2781  0.2225  0.0225
    1WF      WF68632  28.978  21.301   0.860 -0.0561  0.0420  0.1442
    1WF      WF68633  11.775   6.311   8.295  0.0759  0.0229 -0.0175
    1WF      WF68634   1.427  27.704   1.184 -0.2107 -0.3281  0.2348
    1WF      WF68635   7.335  28.084   1.681  0.1799  0.4177 -0.1761
    1WF      WF68636  16.602  27.303   2.952  0.1424  0.1016 -0.0387
    1WF      WF68637   2.054  16.881   7.489  0.1049 -0.1742  0.2365
    1WF      WF68638  22.562   6.196   1.350 -0.2094  0.2181  0.2301
    1WF      WF68639  23.903   7.398   1.122  0.2008 -0.0278  0.1386
    1WF      WF68640  18.455  28.751   7.122  0.2257 -0.1529 -0.3280
    1WF      WF68641  21.271   7.773   0.821 -0.3689 -0.2347 -0.4867
    1WF      WF68642  27.318  17.138   8.788 -0.0152 -0.0098  0.0748
    1WF      WF68643  25.104   8.232   1.593  0.4301  0.0631  0.4501
    1WF      WF68644  23.855   5.439   6.818 -0.1362 -0.0629 -0.2096
    1WF      WF68645  14.617   4.948   1.586  0.0102  0.0480 -0.1293
    1WF      WF68646   3.607  21.463   0.761  0.0351 -0.0938 -0.1617
    1WF      WF68647  19.131   7.207   2.975 -0.2030 -0.4478 -0.1815
    1WF      WF68648   8.490  18.335   7.952  0.3397 -0.1025 -0.0351
    1WF      WF68649  19.614  14.429   0.375 -0.4171 -0.0742 -0.1292
    1WF      WF68650  11.562  28.625   0.966 -0.0165  0.0030  0.0358
    1WF      WF68651  13.198  10.403   2.153 -0.1102  0.3120 -0.1327
    1WF      WF68652  13.167   3.377   0.136  0.2598 -0.2217  0.0105
    1WF      WF68653  28.887   1.364   1.934  0.4389  0.1388 -0.3596
    1WF      WF68654   7.562  13.821   2.495 -0.0485  0.0068 -0.0857
    1WF      WF68655  20.625   8.274   8.888 -0.0603 -0.1241 -0.3518
    1WF      WF68656   6.940   8.785   0.427  0.0003  0.1327 -0.2710
    1WF      WF68657   7.634   4.160   8.897  0.1576  0.2326 -0.1549
    1WF      WF68658  24.546  10.868   8.259  0.0647  0.2141 -0.1189
    1WF      WF68659  27.267  11.256   0.215 -0.0922 -0.0984 -0.4396
    1WF      WF68660  16.657  12.881   1.174 -0.1861  0.1310 -0.2966
    1WF      WF68661  20.418   5.028   0.510 -0.1139 -0.2021  0.0351
    1WF      WF68662  20.063   3.045   1.166 -0.1391  0.4566 -0.0412
    1WF      WF68663  23.143  20.253   8.874 -0.2740  0.0227  0.1034
    1WF      WF68664  22.327  11.127   7.510  0.1209  0.0796  0.2881
    1WF      WF68665  13.585  12.260   7.852 -0.3639 -0.1172 -0.5765
    1WF      WF68666  14.145   7.280   8.883  0.1295 -0.2495 -0.1068
    1WF      WF68667  12.239   8.475   9.124  0.2265 -0.1265 -0.0623
    1WF      WF68668  24.867  21.370   1.722 -0.4518 -0.1132  0.0473
    1WF      WF68669   2.858  12.594   0.448  0.3051  0.0269 -0.0012
    1WF      WF68670  15.588   0.375   7.827 -0.4190 -0.3026  0.0212
    1WF      WF68671   8.634  10.116   8.063 -0.0200 -0.0991  0.0197
    1WF      WF68672  24.146  12.638   7.932  0.0992 -0.0338  0.1668
    1WF      WF68673   3.271  25.901   8.595 -0.1305  0.1389  0.0246
    1WF      WF68674  17.384  24.303   0.121  0.0206  0.0585 -0.1072
    1WF      WF68675  29.902  14.362   0.385  0.1161  0.0835  0.0399
    1WF      WF68676  20.652  14.260   8.556  0.1296  0.0812  0.1556
    1WF      WF68677  20.833  12.051   1.882  0.1278  0.0365 -0.0184
    1WF      WF68678  18.129  10.305   0.426  0.1665 -0.2277 -0.3123
    1WF      WF68679   5.899  29.318   3.634 -0.1188  0.0480 -0.0230
    1WF      WF68680  17.381  17.672   2.850  0.6140  0.1689 -0.1068
    1WF      WF68681  11.383  22.928   7.243 -0.0032  0.1177 -0.2942
    1WF      WF68682   7.317   0.147   1.466  0.2382 -0.0530 -0.2920
    1WF      WF68683   0.102  24.747   0.301 -0.2566 -0.1104  0.1557
    1WF      WF68684  12.371  21.814   7.581  0.1253  0.0072  0.0288
    1WF      WF68685   0.831   9.243   1.811 -0.0323  0.0686 -0.0806
    1WF      WF68686   9.796  24.360   1.443  0.0540 -0.4255  0.2001
    1WF      WF68687  10.536  22.645   1.977 -0.2749 -0.1405 -0.0490
    1WF      WF68688  23.523   9.252   1.047 -0.1573  0.1006 -0.0424
    1WF      WF68689   6.044  25.918   7.842 -0.1697  0.0627 -0.1621
    1WF      WF68690  26.115   1.391   1.668 -0.3581 -0.1460  0.0624
    1WF      WF68691   2.288  28.524   1.259 -0.0626 -0.1678  0.0903
    1WF      WF68692  15.888   2.460   1.530 -0.1945  0.2233 -0.3350
    1WF      WF68693   0.257  14.780   7.182 -0.0639 -0.1793  0.2706
    1WF      WF68694  25.671  18.974   8.026 -0.2283 -0.2770  0.2716
    1WF      WF68695   2.990  17.077   6.410  0.0359  0.1880 -0.0656
    1WF      WF68696  24.122  26.051   1.334  0.0987  0.0245 -0.1856
    1WF      WF68697   4.181   5.984   1.591  0.2238  0.4512 -0.2343
    1WF      WF68698   1.825  29.464   7.719 -0.0679  0.1359 -0.1251
    1WF      WF68699  29.306  22.199   0.750  0.2190  0.1171 -0.0121
    1WF      WF68700  18.189  27.326   1.023 -0.0688  0.1276 -0.0443
    1WF      WF68701  10.088  28.759   1.214 -0.2280 -0.2353 -0.2912
    1WF      WF68702  11.719   2.323   3.141 -0.0107  0.2271  0.1051
    1WF      WF68703  15.557  22.282   6.473  0.2096 -0.0521  0.3323
    1WF      WF68704  15.682  14.466   0.767  0.2317 -0.2875 -0.3134
    1WF      WF68705  11.605  17.792   1.285  0.0456  0.1765  0.1905
    1WF      WF68706  27.221  11.457   8.067 -0.1212  0.0145 -0.0916
    1WF      WF68707  28.800   3.775   1.699 -0.1046 -0.0428 -0.3204
    1WF      WF68708  29.644   7.069   8.365 -0.0719  0.3073  0.1430
    1WF      WF68709   1.844  23.986   8.264 -0.1626 -0.2439  0.1799
    1WF      WF68710  28.940  13.465   8.482  0.3000 -0.0969 -0.0524
    1WF      WF68711  27.132  19.552   0.293  0.2133 -0.0540 -0.4353
    1WF      WF68712   8.991  29.037   9.135 -0.0650  0.1872 -0.0681
    1WF      WF68713   2.322  24.086   8.672 -0.0867 -0.1034 -0.0979
    1WF      WF68714  21.272  17.623   8.802 -0.1841 -0.0194 -0.0222
    1WF      WF68715  30.217  28.112   8.395  0.0460  0.0059  0.1559
    1WF      WF68716  27.113  12.229   0.711  0.1401  0.0222  0.0868
    1WF      WF68717  14.635  14.360   0.697 -0.0914 -0.4766  0.0176
    1WF      WF68718  30.173  16.374   0.255  0.1044  0.0856 -0.2672
    1WF      WF68719  18.773  20.252   8.954 -0.2382 -0.2265 -0.2439
    1WF      WF68720   7.038  14.734   1.159 -0.0787  0.0132  0.0294
    1WF      WF68721  13.772  11.687   0.089 -0.0096  0.0133  0.4242
    1WF      WF68722   1.789  25.953   8.142  0.0348  0.0267 -0.0307
    1WF      WF68723  21.233   5.359   7.348  0.1198  0.0606  0.2902
    1WF      WF68724   2.025  16.020   8.509  0.3133  0.1828  0.0208
    1WF      WF68725  11.368  10.476   7.633 -0.1647 -0.4613  0.1604
    1WF      WF68726   4.878   5.195   6.620  0.4641 -0.2108 -0.0850
    1WF      WF68727  26.095  15.629   6.773 -0.0040  0.2201 -0.0293
    1WF      WF68728  22.510  26.956   0.442  0.2777  0.2147  0.1042
    1WF      WF68729  24.552  15.449   8.034  0.2139 -0.3661  0.1662
    1WF      WF68730  18.753  19.677   5.866  0.1074  0.1533 -0.0210
    1WF      WF68731   3.580  11.047   1.209  0.1538 -0.1367  0.0556
    1WF      WF68732  18.145  12.634   3.095 -0.2273 -0.0083  0.2463
    1WF      WF68733  12.526   4.348   6.383  0.1617  0.2213  0.0801
    1WF      WF68734  20.360  11.147   8.577  0.4439  0.2238  0.2022
    1WF      WF68735  16.755  18.512   0.190 -0.1063  0.0914  0.1372
    1WF      WF68736  27.267  23.406   1.369 -0.1401 -0.3630  0.2904
    1WF      WF68737   0.791   0.292   7.180  0.2031 -0.1971 -0.1384
    1WF      WF68738  16.500  19.340   7.719  0.0268  0.0002  0.0726
    1WF      WF68739  25.301  14.524   7.728 -0.0747 -0.0276  0.0729
    1WF      WF68740  29.816  10.716   1.118 -0.3756 -0.1011  0.0151
    1WF      WF68741  26.230  11.312   8.852 -0.0212  0.1557  0.2373
    1WF      WF68742  11.380   9.014   1.861  0.4107  0.0900  0.0238
    1WF      WF68743  12.336  12.530   2.202 -0.0624 -0.3137 -0.0354
    1WF      WF68744  13.016  13.231   1.604  0.1116  0.1000 -0.1322
    1WF      WF68745  24.706  15.587   7.585 -0.2454  0.0545 -0.2088
    1WF      WF68746   5.317  19.658   1.710 -0.4233  0.2395 -0.3655
    1WF      WF68747   2.128   7.299   8.756  0.1146 -0.1175 -0.1095
    1WF      WF68748  11.965  14.669   8.902 -0.0301  0.1446 -0.0836
    1WF      WF68749   2.465   5.922   0.405 -0.1590  0.0993 -0.0494
    1WF      WF68750   8.011   7.508   0.618 -0.1177  0.1294  0.1170
    1WF      WF68751  27.349  28.388   1.682 -0.0477 -0.0983 -0.2771
    1WF      WF68752  12.251   5.273   7.767 -0.1030  0.2415  0.0510
    1WF      WF68753   2.254   0.600   1.565 -0.0695  0.4921 -0.0039
    1WF      WF68754   8.086   9.770   1.321 -0.1300 -0.1735  0.0171
    1WF      WF68755   3.462   5.124   0.922  0.4040  0.2601 -0.1723
    1WF      WF68756  29.175   8.415   1.681  0.1083 -0.2363  0.3042
    1WF      WF68757  19.089  29.124   8.574  0.0867 -0.2345 -0.1317
    1WF      WF68758  26.416  27.287   1.932 -0.1490  0.2917  0.0899
    1WF      WF68759   5.533  29.385   8.768 -0.1782  0.0584  0.1984
    1WF      WF68760  14.944  16.051   1.634 -0.1476 -0.0194  0.0842
    1WF      WF68761  22.850  25.306   1.816 -0.0154  0.2142  0.0465
    1WF      WF68762  19.082  18.566   8.063 -0.2987 -0.0001 -0.1344
    1WF      WF68763  18.136   5.781   7.734  0.2203  0.0885 -0.0880
    1WF      WF68764  10.966  29.550   1.513  0.1515 -0.0274 -0.1370
    1WF      WF68765  11.106  18.612   8.524  0.0555  0.0696  0.0060
    1WF      WF68766  19.757   6.828   7.223  0.0965 -0.2116  0.1590
    1WF      WF68767  11.107  30.174   8.754 -0.0997 -0.0538 -0.0152
    1WF      WF68768  29.958  19.062   0.027 -0.2946  0.1396 -0.0182
    1WF      WF68769  13.828   8.581   1.557 -0.0504  0.3374 -0.0635
    1WF      WF68770  28.163  25.025   1.424 -0.0264  0.2829  0.1142
    1WF      WF68771  14.358  28.873   7.403 -0.1570 -0.1065 -0.3101
    1WF      WF68772  27.156   1.552   0.473 -0.0378 -0.0373 -0.1226
    1WF      WF68773  14.720  28.306   7.139 -0.1955  0.1409 -0.3082
    1WF      WF68774   2.733  17.281   0.685 -0.1945 -0.0874 -0.1416
    1WF      WF68775  10.726   7.259   0.045 -0.0176 -0.0851  0.0553
    1WF      WF68776  20.098  17.644   8.809  0.3212  0.0180 -0.1173
    1WF      WF68777  16.996  13.597   6.524 -0.1050  0.1380 -0.0174
    1WF      WF68778   0.126  29.410   2.145 -0.2330 -0.2194  0.0225
    1WF      WF68779  14.930  16.421   1.924  0.0873 -0.1008 -0.0319
    1WF      WF68780   3.942  13.611   7.912  0.0707  0.0591 -0.2895
    1WF      WF68781  15.458  12.787   8.621  0.0196 -0.0199 -0.2139
    1WF      WF68782   1.899  29.790   1.689 -0.0845  0.1871  0.2043
    1WF      WF68783   9.792  22.295   0.529  0.0087 -0.1644  0.1470
    1WF      WF68784   4.369   9.857   0.894  0.0697 -0.2313  0.2464
    1WF      WF68785   4.189  13.287   0.488  0.0310 -0.0569  0.2024
    1WF      WF68786  29.483   1.329   2.263 -0.1842 -0.0773  0.4552
    1WF      WF68787  22.303  23.883   0.485  0.2928  0.2565 -0.1958
    1WF      WF68788   3.483  28.315   9.168  0.0707 -0.0439  0.0310
    1WF      WF68789  16.862   6.426   7.607 -0.2034  0.1301 -0.1404
    1WF      WF68790   9.170   6.030   8.891  0.0552  0.1299  0.1817
    1WF      WF68791   4.258  26.181   8.098  0.3060 -0.2100 -0.0325
    1WF      WF68792  26.581   3.963   8.627 -0.0712  0.0776 -0.0115
    1WF      WF68793  12.666   3.558   0.227  0.3514 -0.2199  0.1070
    1WF      WF68794   7.996   2.547   3.706 -0.0135 -0.1295  0.1333
    1WF      WF68795   2.760  30.121   2.764  0.0342 -0.1202 -0.1802
    1WF      WF68796  30.055  19.247   8.398  0.0948 -0.0048  0.5194
    1WF      WF68797  10.718  25.879   6.859  0.0522 -0.2722 -0.1043
    1WF      WF68798   2.228  14.404   0.845  0.1604 -0.1344 -0.0657
    1WF      WF68799  15.512   4.146   0.981  0.1605  0.2831  0.1713
    1WF      WF68800  24.257  29.127   8.139 -0.1712  0.0585  0.2190
    1WF      WF68801  21.699  13.203   7.630  0.1006 -0.1918  0.1658
    1WF      WF68802  18.530  23.904   2.157  0.0607  0.0387 -0.1669
    1WF      WF68803  16.056  28.780   0.804 -0.0849 -0.1013  0.1208
    1WF      WF68804  26.632   1.235   6.886  0.2238  0.1875 -0.3753
    1WF      WF68805  25.880  16.560   8.973 -0.1052  0.0695 -0.3655
    1WF      WF68806   4.429  22.632   0.214  0.1811 -0.2404  0.2018
    1WF      WF68807  17.955  24.579   6.505  0.1215 -0.0739 -0.0187
    1WF      WF68808   0.597   5.682   8.264  0.1465  0.3373  0.1169
    1WF      WF68809  16.153  20.586   8.805  0.0509  0.2740  0.0617
    1WF      WF68810   0.377   4.736   8.193 -0.1425  0.2911 -0.0360
    1WF      WF68811  15.226  29.872   8.164  0.4005 -0.2704 -0.2316
    1WF      WF68812  16.940  20.383   9.222  0.0591  0.0341  0.0453
    1WF      WF68813  14.209  10.256   0.391 -0.1563  0.1623  0.1810
    1WF      WF68814   0.374  15.492   8.562 -0.2042  0.1205 -0.1342
    1WF      WF68815  22.998  22.090   8.474 -0.0252  0.2823 -0.0242
    1WF      WF68816  20.873  10.145   8.144 -0.1614 -0.1015  0.4074
    1WF      WF68817   5.054   0.850   2.589 -0.0387 -0.3886  0.0194
    1WF      WF68818   3.136  12.075   1.124 -0.6276 -0.3537  0.0231
    1WF      WF68819  17.999  18.884   1.264  0.1440  0.1207  0.0822
    1WF      WF68820   0.983  17.755   7.571  0.0070  0.0753 -0.3001
    1WF      WF68821   7.335   3.407   0.803 -0.3319  0.0948 -0.1500
    1WF      WF68822   2.635  26.764   2.838 -0.1087 -0.2968  0.0444
    1WF      WF68823  11.047   2.443   9.154 -0.1826 -0.1376 -0.1791
    1WF      WF68824   5.107  15.600   8.254  0.1713  0.0361  0.2344
    1WF      WF68825  14.288   8.683   1.738 -0.0707  0.3533  0.1205
    1WF      WF68826  24.124   6.888   0.857  0.0690  0.1622 -0.2175
    1WF      WF68827  28.170  25.495   1.568  0.2771  0.2256  0.1073
    1WF      WF68828  15.316  13.255   8.486 -0.0935  0.0113 -0.1402
    1WF      WF68829  26.508  25.307   0.849  0.1092 -0.0213 -0.1729
    1WF      WF68830  20.975   9.264   0.001 -0.0216  0.2027  0.0340
    1WF      WF68831   2.614  16.815   8.989  0.2158  0.0236 -0.2829
    1WF      WF68832  10.873  22.027   1.279 -0.0334 -0.1125  0.1641
    1WF      WF68833  26.413  13.642   0.238 -0.0715  0.0648  0.0854
    1WF      WF68834  12.867  23.077   0.745 -0.2732 -0.2626 -0.2341
    1WF      WF68835  12.980   1.135   1.106 -0.1800  0.0377  0.1096
    1WF      WF68836  10.321   8.201   9.045  0.2269 -0.1604  0.0871
    1WF      WF68837  17.017   2.573   7.036  0.0178  0.1261 -0.1728
    1WF      WF68838  17.949  12.369   1.269 -0.4345 -0.2843  0.0671
    1WF      WF68839  19.031   3.556   7.953 -0.0313  0.3493  0.0915
    1WF      WF68840  24.612   5.822   9.102  0.2562  0.0293 -0.0575
    1WF      WF68841   2.673  12.977   6.717  0.1410  0.2020  0.2520
    1WF      WF68842   6.134  25.116   0.883 -0.1617  0.2520  0.0505
    1WF      WF68843  27.001  29.707   8.355 -0.2938  0.2001  0.1186
    1WF      WF68844  11.106   3.348   0.936 -0.1318  0.2553 -0.2281
    1WF      WF68845  28.646  15.369   8.665  0.0271  0.1521  0.0785
    1WF      WF68846  19.596  25.277   7.178 -0.0550  0.0618  0.0930
    1WF      WF68847   1.082  27.768   6.926 -0.2941 -0.3301  0.2470
    1WF      WF68848   3.747  25.381   0.403 -0.0720  0.1991 -0.1854
    1WF      WF68849   1.190   9.703   8.798  0.3978 -0.0713 -0.0107
    1WF      WF68850   9.018   0.893   0.623  0.0518 -0.1600 -0.0047
    1WF      WF68851   1.944   7.457   7.818 -0.0680 -0.1121 -0.0618
    1WF      WF68852   7.483  23.798   0.301 -0.1157  0.2160 -0.2121
    1WF      WF68853   2.892  26.360   2.934 -0.1932  0.3445  0.0392
    1WF      WF68854  23.349  12.954   7.271 -0.0602  0.0657 -0.1082
    1WF      WF68855  16.218  26.961   7.747  0.0793  0.1639  0.1802
    1WF      WF68856   7.894  23.628   0.597 -0.0389 -0.2537 -0.0225
    1WF      WF68857  21.875  27.273   0.018 -0.1008  0.2093  0.0652
    1WF      WF68858  27.506   2.600   8.554 -0.2048  0.3966 -0.1737
    1WF      WF68859  12.919  24.520   0.012  0.0754 -0.0785  0.2973
    1WF      WF68860  12.585  18.003   0.989  0.2016 -0.1052 -0.2727
    1WF      WF68861  14.134  14.294   2.063  0.1670  0.1832 -0.0282
    1WF      WF68862  30.245  25.116   1.180  0.0834 -0.0639  0.1427
    1WF      WF68863  25.559  21.331   8.005  0.0271  0.1792  0.0363
    1WF      WF68864  10.169  13.027   0.698  0.2946 -0.0565  0.4833
    1WF      WF68865   6.174   1.327   2.075  0.1763 -0.1059  0.0227
    1WF      WF68866   7.609  18.267   7.151 -0.1111  0.0919  0.1450
    1WF      WF68867   5.644   2.000   9.059  0.1322 -0.0682 -0.1232
    1WF      WF68868  23.053  28.428   8.347 -0.2643  0.2907 -0.1894
    1WF      WF68869  29.732  17.973   7.678 -0.2514 -0.0694  0.1007
    1WF      WF68870  13.535  15.164   9.087  0.0397 -0.4235  0.0112
    1WF      WF68871  11.056  23.745   7.697  0.1091  0.1764  0.1366
    1WF      WF68872  14.971   3.886   0.231 -0.1285  0.3547  0.0117
    1WF      WF68873  15.815  29.121   9.264  0.2573  0.1123 -0.1659
    1WF      WF68874   3.118  12.948   0.691 -0.0852 -0.0262 -0.0192
    1WF      WF68875   5.099   1.631   9.017  0.4086 -0.0401  0.0944
    1WF      WF68876  23.691  24.008   8.917 -0.0195 -0.2604  0.2845
    1WF      WF68877  18.660  11.228   0.634 -0.0539 -0.3793 -0.1137
    1WF      WF68878  26.489  21.512   1.134 -0.0016 -0.0117  0.0601
    1WF      WF68879  25.667  16.892   8.656  0.3930 -0.2318 -0.1180
    1WF      WF68880   4.809  15.139   0.169 -0.2087  0.1780  0.0451
    1WF      WF68881   0.576   4.037   3.191 -0.2343 -0.0934  0.1568
    1WF      WF68882   9.059   4.940   1.047  0.2003  0.1364 -0.0037
    1WF      WF68883  18.622   0.023   2.291  0.1414  0.0189 -0.2602
    1WF      WF68884   7.989  20.511   1.583 -0.2949  0.2165 -0.1129
    1WF      WF68885  26.650  23.276   0.216 -0.2149  0.1666 -0.1958
    1WF      WF68886  29.717  11.146   8.332  0.2927  0.0666  0.1315
    1WF      WF68887  29.115   8.824   7.677 -0.1987  0.0489  0.0665
    1WF      WF68888  16.046  15.795   8.061  0.0710 -0.1865 -0.1589
    1WF      WF68889   0.611   3.976   0.788  0.1463  0.1034  0.1537
    1WF      WF68890  28.721   2.200   9.174 -0.4357  0.1864 -0.0413
    1WF      WF68891   2.218   5.870   9.250  0.0312 -0.0007 -0.0826
    1WF      WF68892  15.146   6.019   7.961 -0.1558  0.1618 -0.2126
    1WF      WF68893  13.223  26.708   9.238  0.1802  0.0451  0.1002
    1WF      WF68894  30.033   3.678   2.577  0.0856 -0.2002 -0.2768
    1WF      WF68895  24.702   7.072   7.433  0.0620  0.3201 -0.2951
    1WF      WF68896  14.602  20.071   7.311 -0.1188  0.1240  0.0883
    1WF      WF68897  17.362   4.937   0.678  0.1729 -0.0960 -0.1786
    1WF      WF68898   2.273  26.014   7.854  0.0070  0.5031 -0.3326
    1WF      WF68899  21.586   7.996   1.342  0.4423  0.3700 -0.0250
    1WF      WF68900  17.229  10.565   0.940  0.0366  0.2664  0.2039
    1WF      WF68901   9.049  26.849   0.986  0.0176  0.1328  0.1174
    1WF      WF68902  29.415  16.743   1.279 -0.1878 -0.1466  0.1629
    1WF      WF68903  18.854  29.745   7.668 -0.2880  0.0739 -0.1060
    1WF      WF68904  29.046  22.318   8.633  0.0909  0.4021 -0.0153
    1WF      WF68905   5.037  26.569   0.807 -0.1833  0.0388  0.0521
    1WF      WF68906  11.016  16.882   1.504 -0.4587  0.1207 -0.0641
    1WF      WF68907  11.304  22.375   1.115 -0.1285 -0.0829 -0.0423
    1WF      WF68908   7.050   7.593   9.110 -0.0543  0.0372  0.1362
    1WF      WF68909   7.086  13.735   1.082 -0.0101  0.1144 -0.0462
    1WF      WF68910   3.652   2.738   2.020 -0.1301  0.1520  0.0549
    1WF      WF68911  25.734  29.504   8.960  0.0036 -0.3169 -0.1168
    1WF      WF68912  27.248  17.279   0.038  0.1212  0.2455 -0.1911
    1WF      WF68913  12.428  24.711   9.261  0.1779  0.2958  0.2090
    1WF      WF68914  27.440   9.002   7.012  0.0625 -0.0579 -0.0574
    1WF      WF68915  28.403   8.613   8.912  0.2588 -0.0356 -0.3351
    1WF      WF68916  17.276  19.573   8.263  0.1422  0.1562  0.3050
    1WF      WF68917   6.907   7.245   8.776 -0.3614  0.4745 -0.0234
    1WF      WF68918   3.522   6.026   7.873  0.2074  0.2221  0.0166
    1WF      WF68919  20.055  15.518   7.460  0.0296 -0.1776 -0.0556
    1WF      WF68920   1.125  12.657   2.247 -0.0416 -0.0750  0.0030
    1WF      WF68921   9.433   2.746   1.323  0.0402 -0.0554  0.0979
    1WF      WF68922   9.726   7.433   2.822 -0.0235  0.0896  0.1399
    1WF      WF68923  30.055  27.924   8.826  0.1655  0.0725  0.0184
    1WF      WF68924  22.064  27.312   7.009  0.1801  0.1777  0.0445
    1WF      WF68925   9.013  24.122   2.426 -0.0885 -0.3450  0.0669
    1WF      WF68926  21.427  21.348   9.072 -0.1333  0.0288  0.0084
    1WF      WF68927  18.902   6.062   6.010  0.2723  0.1076 -0.0218
    1WF      WF68928  28.535  22.664   7.925  0.3661 -0.0789 -0.2750
    1WF      WF68929  23.127  18.460   9.207 -0.1000  0.0143  0.2090
    1WF      WF68930  10.206  22.289   0.202  0.0764 -0.1252 -0.0183
    1WF      WF68931  13.272   3.034   1.850 -0.1274  0.0062 -0.0374
    1WF      WF68932   7.954  12.137   7.752  0.0172 -0.1643 -0.1453
    1WF      WF68933  23.250  14.808   0.449  0.3473 -0.0196 -0.1387
    1WF      WF68934   9.441  17.462   1.496 -0.0680 -0.4578 -0.2327
    1WF      WF68935   0.444  14.262   7.224  0.1452 -0.0407  0.2754
    1WF      WF68936   5.751  22.346   8.452  0.1784 -0.2329 -0.0939
    1WF      WF68937  20.646  20.118   7.693  0.1347 -0.0008  0.1467
    1WF      WF68938   9.347  27.806   8.499  0.1402 -0.0705  0.0100
    1WF      WF68939   5.625  15.690   8.075  0.3021 -0.0255 -0.0116
    1WF      WF68940  21.576  28.924   8.904 -0.0320 -0.1606 -0.3242
    1WF      WF68941   0.212  21.451   7.808  0.1156  0.0411  0.3424
    1WF      WF68942  11.124  15.974   0.176  0.1399  0.1157 -0.2748
    1WF      WF68943  28.549  13.779   8.389 -0.2110  0.1165  0.1742
    1WF      WF68944   5.556   7.819   3.188 -0.2545 -0.0906  0.1003
    1WF      WF68945   9.620  21.335   8.731  0.1889  0.0585 -0.0448
    1WF      WF68946   0.327   5.527   0.989  0.0556  0.0672  0.4189
    1WF      WF68947  25.987  15.105   8.171  0.4279  0.0872  0.0198
    1WF      WF68948  10.717   1.776   0.531 -0.0445 -0.3526 -0.1747
    1WF      WF68949  20.944  29.513   8.296 -0.2178  0.1220 -0.1363
    1WF      WF68950  21.967  22.717   7.100  0.0742  0.3394  0.0742
    1WF      WF68951  19.834  16.446   6.007  0.1042 -0.1601 -0.0627
    1WF      WF68952  18.483  19.832   9.035 -0.2134  0.2331 -0.1812
    1WF      WF68953  30.214   4.835   8.352  0.1834 -0.1587 -0.0003
    1WF      WF68954  27.537  27.270   8.024 -0.1734 -0.0327  0.1582
    1WF      WF68955   4.544  12.626   7.933 -0.2675 -0.0230  0.1656
    1WF      WF68956  15.971  27.850   1.378 -0.0451 -0.3259  0.2273
    1WF      WF68957  29.966  11.527   8.521  0.2610 -0.0816 -0.1043
    1WF      WF68958  14.309  18.250   0.293  0.1995 -0.0778  0.2464
    1WF      WF68959  13.415  17.499   7.027  0.0430 -0.0378 -0.1204
    1WF      WF68960   9.950   4.588   0.084 -0.1131 -0.1534 -0.0841
    1WF      WF68961   3.253   3.813   8.212 -0.2830  0.3047 -0.3912
    1WF      WF68962  11.670  28.029   6.950  0.1435  0.1338 -0.1174
    1WF      WF68963  21.825  28.756   6.775 -0.1677 -0.2647  0.0724
    1WF      WF68964   5.930  25.301   0.490 -0.2208 -0.3268 -0.0890
    1WF      WF68965   0.317   6.033   0.888 -0.1524 -0.0178 -0.0270
    1WF      WF68966   6.274   1.424   7.672  0.1477 -0.0596  0.3538
    1WF      WF68967  19.108  29.451   8.182 -0.1764 -0.0083  0.0565
    1WF      WF68968   0.677  19.533   0.842 -0.1740  0.1330  0.3105
    1WF      WF68969  26.280  22.553   7.120  0.0275  0.2626 -0.1273
    1WF      WF68970  26.756   8.621   8.630 -0.1926 -0.1226 -0.1333
    1WF      WF68971  29.244  29.158   1.749  0.2095 -0.0971  0.1986
    1WF      WF68972  16.659  29.318   1.222  0.0544  0.1282  0.2044
    1WF      WF68973  14.770  28.833   2.187 -0.0327  0.0020 -0.2417
    1WF      WF68974  19.643   2.070   8.729  0.0417  0.1625 -0.0998
    1WF      WF68975  14.430   7.355   0.799  0.1660  0.0197 -0.0843
    1WF      WF68976  18.598  23.471   1.813 -0.1046 -0.1879 -0.1579
    1WF      WF68977   7.446   8.447   7.420 -0.0297 -0.0061  0.0017
    1WF      WF68978   6.461  12.022   0.473  0.2232 -0.0840 -0.1426
    1WF      WF68979  14.877   6.061   7.498  0.0469 -0.2844 -0.0580
    1WF      WF68980  14.948  23.501   1.055 -0.1094 -0.2257 -0.1255
    1WF      WF68981  18.320   2.396   8.183 -0.2949 -0.1782 -0.1842
    1WF      WF68982  24.065  30.022   2.788  0.1431  0.2057  0.0127
    1WF      WF68983   1.950  15.533   8.627 -0.1457 -0.0039 -0.0115
    1WF      WF68984  23.364  21.751   8.323 -0.1122  0.0498 -0.3854
    1WF      WF68985  28.333   3.371   8.364 -0.0414 -0.5076  0.0129
    1WF      WF68986  18.050  17.910   0.610  0.0670  0.1456 -0.0555
    1WF      WF68987  12.996   9.540   1.947  0.2534  0.0765  0.2059
    1WF      WF68988  13.308  13.874   8.576 -0.1503  0.1438 -0.0486
    1WF      WF68989   1.453  11.966   1.496 -0.2758  0.1715  0.0365
    1WF      WF68990  16.161   5.740   7.518  0.2942 -0.0292 -0.1434
    1WF      WF68991  11.371   8.088   0.246 -0.0378 -0.3415  0.0126
    1WF      WF68992  25.194  26.319   7.469 -0.4970 -0.1813 -0.1023
    1WF      WF68993  29.474  24.099   8.226 -0.0374 -0.4455  0.1940
    1WF      WF68994  28.230  19.936   8.565 -0.1413 -0.1473 -0.1799
    1WF      WF68995  12.579  26.027   2.751  0.2673  0.1756  0.2874
    1WF      WF68996   4.546   6.409   8.515  0.3179 -0.1485  0.2828
    1WF      WF68997   6.981  23.430   8.706 -0.3364  0.1582  0.0910
    1WF      WF68998  27.842  12.526   7.985  0.0331  0.0363  0.2675
    1WF      WF68999  21.037  28.458   2.984  0.1994  0.0128 -0.0472
    1WF      WF69000  28.233  26.062   1.529  0.1251 -0.0625 -0.0164
    1WF      WF69001  11.578  12.507   1.388  0.0998 -0.0362 -0.0749
    1WF      WF69002  16.621  23.412   8.686 -0.0806 -0.2302  0.1241
    1WF      WF69003   4.390  12.129   7.963  0.0043 -0.2783  0.1399
    1WF      WF69004   3.221  17.989   0.361  0.0824  0.0785  0.1484
    1WF      WF69005   1.361  22.081   8.027 -0.2242 -0.1362  0.3603
    1WF      WF69006  29.141  29.191   2.743  0.1942 -0.2379 -0.1362
    1WF      WF69007  14.755  17.570   2.007 -0.1314 -0.1557  0.1197
    1WF      WF69008  19.956   5.069   6.353 -0.4309 -0.2109  0.0792
    1WF      WF69009   7.965  29.199   1.006  0.1113 -0.1499  0.1912
    1WF      WF69010  24.115  28.306   1.643 -0.0344  0.0207  0.0486
    1WF      WF69011  10.351  12.837   8.298  0.2986 -0.1553  0.1167
    1WF      WF69012  10.008  10.527   1.278  0.2215 -0.0386 -0.0724
    1WF      WF69013  27.534  21.735   7.710 -0.1352  0.1218  0.2602
    1WF      WF69014  20.303  13.016   8.260  0.1417 -0.0063 -0.0384
    1WF      WF69015   4.191   2.215   1.120 -0.0863 -0.1172 -0.2978
    1WF      WF69016  19.244  19.024   7.706 -0.1949  0.4537  0.1207
    1WF      WF69017  20.559  28.636   2.769 -0.0101  0.1047  0.2322
    1WF      WF69018   2.648  17.063   6.045 -0.0435 -0.3702 -0.0186
    1WF      WF69019  16.197  15.028   2.516  0.2231  0.1521  0.0642
    1WF      WF69020   5.581   2.277   7.548 -0.2113 -0.0166 -0.3439
    1WF      WF69021   8.174  30.292   8.528 -0.2516  0.0320  0.1411
    1WF      WF69022  16.672   4.378   7.131 -0.2072 -0.1243  0.1229
    1WF      WF69023  15.651  15.757   7.669 -0.2029 -0.0850  0.2983
    1WF      WF69024  23.262  16.338   8.054  0.0028  0.1092  0.1078
    1WF      WF69025   8.974  15.192   6.897  0.0474  0.1488  0.2945
    1WF      WF69026   8.922  21.836   7.123  0.3397 -0.2177  0.0297
    1WF      WF69027   8.326   9.228   5.967 -0.1595 -0.2097  0.0194
    1WF      WF69028  27.644  25.506   9.224 -0.1846 -0.0628  0.3621
    1WF      WF69029  10.331  25.948   0.565 -0.1013 -0.1064 -0.1111
    1WF      WF69030  18.070  25.587   0.384  0.0854  0.2712 -0.0954
    1WF      WF69031  11.363  19.199   1.226 -0.0869  0.3618  0.2675
    1WF      WF69032   4.604  10.291   1.000 -0.2081  0.0862  0.2430
    1WF      WF69033   9.094  18.301   0.886 -0.0330  0.0815 -0.1816
    1WF      WF69034  12.435  14.478   8.478  0.2465  0.2537 -0.0414
    1WF      WF69035  23.420  12.985   8.513 -0.0485  0.0081  0.0047
    1WF      WF69036  16.278  13.420   8.737 -0.0857 -0.0791  0.4186
    1WF      WF69037   2.737  17.158   0.028 -0.0478  0.1181  0.0792
    1WF      WF69038  14.198  25.361   8.631 -0.2303  0.1374  0.2072
    1WF      WF69039  29.324   1.629   7.033  0.1566  0.0454  0.0209
    1WF      WF69040  19.401   0.599   9.102 -0.3550  0.2115 -0.3674
    1WF      WF69041  26.570   7.402   6.183  0.1739  0.3341  0.0551
    1WF      WF69042  25.635   1.333   1.636  0.0006  0.2917 -0.0937
    1WF      WF69043  14.662  23.903   7.999 -0.0539  0.0086 -0.0015
    1WF      WF69044  29.802  21.982   0.785 -0.0509 -0.1812  0.0985
    1WF      WF69045  25.652   8.429   9.010  0.4503 -0.3019  0.0757
    1WF      WF69046  28.269  12.481   2.101 -0.0884 -0.1217 -0.0369
    1WF      WF69047  13.326  12.875   1.419  0.4983 -0.2465 -0.1033
    1WF      WF69048  20.138  30.195   7.612  0.0550  0.3943  0.2182
    1WF      WF69049  23.878  26.748   1.940 -0.0217 -0.1039  0.0389
    1WF      WF69050  24.470   5.919   0.346 -0.1752  0.0165 -0.1623
    1WF      WF69051   2.746   4.707   1.317  0.1304 -0.0083 -0.0877
    1WF      WF69052   1.544  11.983   8.993  0.0198 -0.1901 -0.3174
    1WF      WF69053  13.257  17.851   8.017 -0.1078 -0.1154 -0.1763
    1WF      WF69054   5.720   2.913   0.385  0.3038  0.2079  0.1216
    1WF      WF69055   8.596   7.319   6.441 -0.3285 -0.0221 -0.0788
    1WF      WF69056  30.185  11.345   9.078 -0.1746  0.1213  0.0914
    1WF      WF69057  16.067   1.838   5.932 -0.0908  0.1784 -0.4245
    1WF      WF69058  14.372  28.702   0.828  0.2146  0.1644  0.2246
    1WF      WF69059  29.931  22.358   8.664 -0.1666  0.0332 -0.0942
    1WF      WF69060   2.470  22.995   1.176  0.3365 -0.2707 -0.2258
    1WF      WF69061  19.984  14.015   0.284  0.1311  0.2038  0.2075
    1WF      WF69062  26.016   8.596   0.842  0.4011  0.1320  0.0026
    1WF      WF69063  14.214  26.240   1.347 -0.0104 -0.1137  0.1220
    1WF      WF69064  26.229  24.877   0.768 -0.1561  0.4012  0.2037
    1WF      WF69065  26.779   8.238   8.299  0.2054 -0.1784 -0.0166
    1WF      WF69066  27.217   0.753   2.365  0.0001 -0.0501 -0.3770
    1WF      WF69067  14.135  25.215   7.947 -0.1806  0.1318 -0.1569
    1WF      WF69068  12.706   2.358   8.921 -0.1086 -0.2244  0.1285
    1WF      WF69069  19.030  26.655   0.496  0.1005  0.0059  0.2510
    1WF      WF69070   7.557  13.880   0.962 -0.1944  0.3410  0.0178
    1WF      WF69071   0.164  11.498   0.097 -0.1082 -0.0861  0.2706
    1WF      WF69072  18.298  26.006   6.316  0.0247  0.2115 -0.1423
    1WF      WF69073   4.079  29.723   7.796  0.1311 -0.2437  0.2108
    1WF      WF69074  25.574   3.279   8.588  0.3483 -0.1782  0.0676
    1WF      WF69075   4.284   4.912   8.994  0.1514 -0.3108 -0.0198
    1WF      WF69076   9.432  13.965   2.483 -0.0646  0.1210 -0.0608
    1WF      WF69077  28.674   5.913   1.669  0.0824  0.1229  0.3216
    1WF      WF69078   6.573  20.202   9.011 -0.2519 -0.0485  0.0158
    1WF      WF69079  23.449  16.149   8.469 -0.2263 -0.0244 -0.0968
    1WF      WF69080  23.788  17.437   8.512 -0.0824  0.0613  0.2916
    1WF      WF69081  15.891  21.927   2.705  0.2876 -0.2137 -0.0548
    1WF      WF69082  20.238   5.191   8.320  0.0193  0.0529 -0.0725
    1WF      WF69083   6.484   7.403   1.062 -0.1228 -0.1881 -0.1743
    1WF      WF69084   4.647  13.120   0.387  0.1434  0.2273 -0.2029
    1WF      WF69085  17.932  25.594   7.441 -0.2807  0.2167  0.2138
    1WF      WF69086   6.958  21.769   7.071 -0.0599 -0.3205  0.1123
    1WF      WF69087   1.516  15.061   8.637  0.2372 -0.1210 -0.1275
    1WF      WF69088  25.992   3.648   4.207 -0.1527  0.0456 -0.1690
    1WF      WF69089  15.653   3.400   8.314  0.1632  0.0708  0.0767
    1WF      WF69090   6.710   3.346   7.302 -0.1610  0.2847 -0.0715
    1WF      WF69091   2.324   1.307   8.068 -0.2466 -0.0401 -0.0220
    1WF      WF69092   0.292  11.157   9.061  0.0755 -0.0057  0.1029
    1WF      WF69093  23.536   6.318   8.394  0.2159  0.1624  0.2540
    1WF      WF69094  13.194  18.976   8.570  0.1205 -0.0696  0.1348
    1WF      WF69095  30.147   7.771   2.334  0.0030  0.0287  0.1204
    1WF      WF69096  13.271   1.312   1.722  0.0965 -0.2252 -0.0234
    1WF      WF69097  25.876   4.825   8.738 -0.4265 -0.1310  0.3977
    1WF      WF69098   9.079  26.113   0.073  0.0107  0.1227 -0.2738
    1WF      WF69099   1.578  11.576   8.243  0.0261  0.3580  0.1794
    1WF      WF69100   0.405   2.744   2.420 -0.0725 -0.0687 -0.1853
    1WF      WF69101  17.208   9.219   8.298 -0.1905 -0.2824  0.0510
    1WF      WF69102   4.295  11.668   8.428  0.1579 -0.0571  0.2428
    1WF      WF69103   7.741  28.335   1.342  0.1548 -0.1484  0.1079
    1WF      WF69104   0.013  21.927   8.679  0.0269 -0.2826  0.1776
    1WF      WF69105  18.708  21.381   2.606  0.1688  0.0016  0.1066
    1WF      WF69106  23.137   5.437   3.067  0.0628  0.0398 -0.0920
    1WF      WF69107  25.405   5.343   8.972  0.0440 -0.1095 -0.0599
    1WF      WF69108   8.652  23.837   2.172 -0.0924 -0.0271 -0.3023
    1WF      WF69109  20.438   4.880   1.107  0.2008  0.0757 -0.0860
    1WF      WF69110  21.216  11.245   8.673 -0.0061 -0.1624  0.1278
    1WF      WF69111   4.115   2.408   8.437  0.2040  0.0790  0.0383
    1WF      WF69112  23.779  28.970   8.125 -0.1769  0.0933  0.1362
    1WF      WF69113   6.605   9.969   0.782 -0.3079 -0.0808 -0.0495
    1WF      WF69114  26.476   4.092   8.200 -0.0212  0.0986  0.1371
    1WF      WF69115  12.711   1.910   0.590 -0.1704  0.0916 -0.1396
    1WF      WF69116  17.607   6.382   6.942 -0.0544 -0.0871 -0.0512
    1WF      WF69117  22.151   1.438   0.495 -0.1261 -0.0246  0.0300
    1WF      WF69118  17.709  21.302   1.516 -0.0308  0.0315  0.1243
    1WF      WF69119   0.031  18.229   7.802 -0.0102 -0.2446  0.0823
    1WF      WF69120   2.708  23.357   8.609 -0.1544 -0.3090 -0.0822
    1WF      WF69121  25.968   3.067   1.433 -0.2619  0.1082  0.2031
    1WF      WF69122   1.665   3.613   9.179  0.0070  0.0896 -0.3193
    1WF      WF69123  26.597   2.694   8.878 -0.0840  0.1074  0.0445
    1WF      WF69124  20.608  22.588   7.493  0.2307 -0.2180 -0.2137
    1WF      WF69125   9.201  13.807   0.534  0.1920  0.0606 -0.4205
    1WF      WF69126  12.272  19.615   1.008  0.2021  0.3022  0.0290
    1WF      WF69127  12.842  27.019   9.169  0.2163  0.1975  0.0542
    1WF      WF69128  22.037   0.711   1.145 -0.3246 -0.1199 -0.0815
    1WF      WF69129   0.293   0.815   8.363 -0.0348  0.0160  0.0180
    1WF      WF69130   3.647   0.418   8.751 -0.3410  0.0659  0.0267
    1WF      WF69131  19.272   0.776   7.567 -0.1201  0.0352  0.0171
    1WF      WF69132  28.224  29.581   2.387  0.1550 -0.1377 -0.2865
    1WF      WF69133  24.750   9.625   7.569 -0.1601  0.1151  0.1296
    1WF      WF69134  20.120  14.518   0.198  0.0123 -0.1228 -0.2046
    1WF      WF69135  27.175  22.123   7.798 -0.1997 -0.2473 -0.0956
    1WF      WF69136  18.501  15.012   0.913  0.1210 -0.2701 -0.1515
    1WF      WF69137   9.003   6.293   2.325  0.1999  0.0411  0.0026
    1WF      WF69138  25.666  14.796   7.959  0.1233 -0.0679  0.0799
    1WF      WF69139  26.883  20.384   8.304 -0.1403 -0.2752 -0.0502
    1WF      WF69140  17.972   8.816   0.609 -0.1314 -0.0111  0.2655
    1WF      WF69141  27.001   5.744   2.927 -0.0503  0.2208 -0.3167
    1WF      WF69142  11.723   6.754   8.523 -0.0393  0.0505  0.2764
    1WF      WF69143   8.498  23.182   8.339  0.4630  0.0858 -0.0415
    1WF      WF69144   4.939   1.026   2.045 -0.1434 -0.0732  0.2638
    1WF      WF69145   3.406  20.538   0.257  0.2666 -0.0063 -0.2082
    1WF      WF69146   1.734   7.565   6.335 -0.0115  0.0449  0.0009
    1WF      WF69147   9.957  29.491   0.088 -0.1122  0.0253 -0.0675
    1WF      WF69148  15.968  18.659   0.554  0.1042  0.1098 -0.3435
    1WF      WF69149  22.754  28.036   8.358  0.1423  0.2921  0.1168
    1WF      WF69150  17.116  14.512   9.039 -0.1241  0.0023  0.1809
    1WF      WF69151  12.551  16.061   2.756 -0.0091  0.1728 -0.0008
    1WF      WF69152  21.838   0.144   8.574  0.2387  0.1259 -0.2598
    1WF      WF69153  29.846  18.291   8.102 -0.3751 -0.2006  0.0194
    1WF      WF69154  29.625  15.351   1.665 -0.0302 -0.2400 -0.1091
    1WF      WF69155  18.453  24.527   6.607 -0.1420 -0.0358  0.3198
    1WF      WF69156   0.782   0.384   1.263 -0.2521 -0.1495 -0.0138
    1WF      WF69157   7.465  14.222   8.270 -0.1723  0.1527  0.0622
    1WF      WF69158  24.694   7.047   1.550  0.0594 -0.1394  0.3588
    1WF      WF69159  10.836  29.680   1.051  0.0295  0.0252  0.4734
    1WF      WF69160  17.189  11.635   7.714  0.2614  0.0699  0.1308
    1WF      WF69161   0.595  20.253   7.865  0.1708  0.1224  0.2580
    1WF      WF69162   3.504  10.405   1.137  0.2050 -0.1515 -0.0457
    1WF      WF69163   7.439  28.571   8.440 -0.2112 -0.1287 -0.2220
    1WF      WF69164  18.380  29.733   0.383  0.0775  0.1606  0.1459
    1WF      WF69165  14.181   5.160   1.604  0.2261  0.0395  0.3302
    1WF      WF69166  12.527   8.740   8.790  0.3685 -0.2518  0.1402
    1WF      WF69167  10.985  25.311   9.223  0.1537  0.0855 -0.3812
    1WF      WF69168  20.233   2.663   0.945  0.0422 -0.0139  0.1960
    1WF      WF69169  21.744  22.029   0.138  0.1245  0.0128 -0.0798
    1WF      WF69170  14.967  16.649   0.092 -0.0331 -0.0254  0.0221
    1WF      WF69171  26.664  13.018   9.220  0.0766  0.1198 -0.2632
    1WF      WF69172  25.503   4.741   7.216 -0.2824  0.0425  0.2651
    1WF      WF69173   6.295   6.538   7.246  0.3428  0.0299 -0.0910
    1WF      WF69174  21.194   8.311   1.034 -0.1565  0.1781  0.3408
    1WF      WF69175   8.341  23.963   7.776 -0.0060  0.4168  0.1508
    1WF      WF69176   7.548  23.315   0.355 -0.2777 -0.2275  0.0342
    1WF      WF69177  15.982  29.446   7.530  0.4026 -0.1172 -0.0440
    1WF      WF69178  27.475  21.230   6.419 -0.3142 -0.1856  0.1100
    1WF      WF69179  12.857   4.382   8.783 -0.0905 -0.2941 -0.1727
    1WF      WF69180   0.740  27.690   9.052 -0.1597 -0.0629 -0.1092
    1WF      WF69181  13.052   3.040   7.661  0.0100 -0.2020 -0.1603
    1WF      WF69182  14.627  10.409   0.064  0.1978 -0.0906 -0.1257
    1WF      WF69183   7.002  14.928   1.616 -0.0811 -0.0643  0.0253
    1WF      WF69184  16.744  20.434   8.766 -0.2284  0.0490 -0.3666
    1WF      WF69185   6.656   7.366   1.588  0.0177 -0.1626 -0.1988
    1WF      WF69186   4.609  14.315   0.235  0.0032 -0.3125  0.1766
    1WF      WF69187  25.884  14.032   7.828  0.0882  0.0639 -0.0107
    1WF      WF69188   5.889  24.119   8.489  0.0066  0.0465  0.0411
    1WF      WF69189  22.465   5.006   8.984  0.2540  0.0345 -0.2073
    1WF      WF69190  15.569   1.628   0.842  0.2581 -0.0391 -0.0062
    1WF      WF69191  22.024   3.334   7.684  0.2751  0.0208  0.1869
    1WF      WF69192   7.348   3.359   3.307  0.0656  0.2691 -0.3260
    1WF      WF69193   1.077  24.980   1.608 -0.1836  0.0102 -0.2491
    1WF      WF69194  11.429  16.523   1.475 -0.3092 -0.0485  0.0668
    1WF      WF69195  16.079  16.217   9.063  0.0279  0.1402 -0.0311
    1WF      WF69196  23.626   5.591   7.405  0.1256 -0.0939 -0.0723
    1WF      WF69197  18.955  22.975   0.649 -0.0448  0.2528  0.3731
    1WF      WF69198   2.340   1.532   7.639  0.4140  0.1741 -0.2571
    1WF      WF69199  23.976  15.236   1.270 -0.1883  0.0083  0.0891
    1WF      WF69200  20.045   4.276   1.826 -0.4257 -0.5254  0.0203
    1WF      WF69201   4.089  11.412   8.868 -0.1822  0.1108  0.0802
    1WF      WF69202  11.508  16.677   8.066  0.1572  0.3267  0.0175
    1WF      WF69203   6.729   3.897   0.664  0.1300  0.1074 -0.2150
    1WF      WF69204   5.660   3.201   9.271  0.0374 -0.0627 -0.1159
    1WF      WF69205   9.225  27.124   6.553  0.2226 -0.1146  0.0059
    1WF      WF69206  24.287   4.443   0.167 -0.1596  0.0524 -0.1315
    1WF      WF69207   3.312  19.553   9.101 -0.1554 -0.0187 -0.0572
    1WF      WF69208  20.942  21.494   0.726  0.3194 -0.0264  0.3926
    1WF      WF69209  17.920  11.857   1.329 -0.0568 -0.1129 -0.4190
    1WF      WF69210   0.169  11.689   0.554  0.0309  0.0571  0.2348
    1WF      WF69211  13.737   6.238   1.377  0.0714 -0.0348  0.2813
    1WF      WF69212   4.451   0.482   3.263  0.2818  0.5439  0.2719
    1WF      WF69213   4.527  18.747   1.168 -0.0774 -0.3921 -0.0514
    1WF      WF69214  21.106  28.957   1.555  0.4684  0.2070  0.0092
    1WF      WF69215  20.455   4.485   1.599  0.1477  0.0867  0.0746
    1WF      WF69216  10.085  24.816   0.634  0.0132 -0.1373 -0.3559
    1WF      WF69217  18.453  21.387   0.500  0.1372 -0.0153  0.2652
    1WF      WF69218   0.471   8.918   2.053 -0.0776  0.1815  0.0446
    1WF      WF69219  10.273  16.929   0.393 -0.0745 -0.0307  0.0459
    1WF      WF69220   6.456  26.330   2.042  0.0458 -0.1365  0.0750
    1WF      WF69221   0.244  16.858   1.178 -0.0151 -0.0701  0.2580
    1WF      WF69222   2.841  12.116   0.718  0.2886 -0.0489  0.1108
    1WF      WF69223  15.063  19.843   7.008  0.0633 -0.4100  0.1784
    1WF      WF69224   3.901   0.374   0.218  0.1325 -0.1613  0.1118
    1WF      WF69225   7.425  17.429   1.783  0.0172 -0.3364  0.0369
    1WF      WF69226  20.429   0.532   3.326  0.1949 -0.0852  0.2373
    1WF      WF69227  10.221   3.058   8.426  0.1322 -0.0952  0.2429
    1WF      WF69228  28.551   7.983   8.443 -0.1271  0.0797  0.4454
    1WF      WF69229  14.099   0.930   7.227  0.0059  0.2620 -0.0461
    1WF      WF69230  13.806  21.200   9.128 -0.3248  0.0191 -0.1997
    1WF      WF69231  16.273  22.086   8.346 -0.1174 -0.0046 -0.0486
    1WF      WF69232   5.899  17.228   5.960  0.0866 -0.0798  0.0084
    1WF      WF69233  18.672  20.694   9.144 -0.1236 -0.1591  0.2135
    1WF      WF69234  15.020  19.546   9.058  0.0372  0.3713  0.1369
    1WF      WF69235   4.877   9.695   9.176 -0.2233 -0.0949  0.0422
    1WF      WF69236  29.392  10.450   1.023  0.4883  0.1367 -0.0139
    1WF      WF69237  19.219   4.690   8.831 -0.1438 -0.5332  0.0438
    1WF      WF69238   4.353   8.821   1.090  0.0355  0.1590 -0.2068
    1WF      WF69239   0.544   7.590   9.057  0.2920 -0.1141  0.1343
    1WF      WF69240   3.790   2.036   0.843 -0.0137  0.3077  0.2163
    1WF      WF69241   9.390  16.043   0.824  0.0716 -0.2937  0.0320
    1WF      WF69242  18.462  23.146   1.347 -0.0771 -0.1375 -0.0887
    1WF      WF69243  19.113  10.878   2.728 -0.0104 -0.3259  0.0142
    1WF      WF69244   0.592  17.554   6.427  0.0384  0.5083  0.0433
    1WF      WF69245  19.264   1.749   8.640  0.2342 -0.0488 -0.2566
    1WF      WF69246  28.387   3.597   1.467 -0.2891 -0.1103 -0.1800
    1WF      WF69247   7.391  24.161   7.502  0.2343  0.3524 -0.0968
    1WF      WF69248   2.099   1.233   8.526 -0.1959 -0.0201 -0.0115
    1WF      WF69249  10.284  27.740   1.680 -0.3142 -0.0686 -0.0485
    1WF      WF69250   1.605  20.942   7.955  0.1692 -0.2381  0.5262
    1WF      WF69251  15.391  29.904   2.425  0.0340  0.3402  0.1555
    1WF      WF69252  14.322   2.909   0.080  0.2149 -0.0674  0.1337
    1WF      WF69253   7.464  12.327   8.722  0.0184 -0.3583 -0.3452
    1WF      WF69254  15.176  25.830   0.094 -0.0716 -0.1635  0.1386
    1WF      WF69255  29.114  24.070   7.901  0.0448 -0.0561  0.2156
    1WF      WF69256   7.352  21.674   2.515 -0.1797  0.0355  0.0913
    1WF      WF69257  27.401  28.886   1.848 -0.2870 -0.2169  0.1380
    1WF      WF69258   5.284  25.533   1.531  0.1862  0.1104 -0.0826
    1WF      WF69259  28.130  12.284   8.402  0.2567  0.1994  0.2368
    1WF      WF69260  20.363  15.706   0.006  0.0658 -0.2590  0.1277
    1WF      WF69261  24.729  14.667   0.640  0.0752 -0.4132  0.1995
    1WF      WF69262  10.631  27.203   7.889 -0.4338 -0.1451  0.1097
    1WF      WF69263  21.098  30.052   8.236 -0.1435  0.1350  0.3423
    1WF      WF69264   4.190  24.308   6.993 -0.0184 -0.1951  0.5561
    1WF      WF69265  13.503  18.713   0.517 -0.1737  0.2931 -0.0359
    1WF      WF69266  26.378  16.395   9.190 -0.0091 -0.0306 -0.1187
    1WF      WF69267  17.945  18.482   0.933 -0.2033  0.2024  0.2721
    1WF      WF69268  27.099  28.695   0.894 -0.2207  0.0309  0.3396
    1WF      WF69269  15.243   7.983   8.667  0.0919  0.0217  0.1692
    1WF      WF69270  22.817  19.604   0.217 -0.0901 -0.3295  0.1752
    1WF      WF69271  29.892  11.157   1.228  0.2022 -0.0439  0.0964
    1WF      WF69272  27.524  20.863   8.321 -0.6587  0.0990 -0.1736
    1WF      WF69273  16.813  21.047   1.238  0.2081  0.2504  0.3738
    1WF      WF69274  10.647  24.238   7.795  0.0414  0.0744  0.0885
    1WF      WF69275  11.996  11.808   0.920 -0.2713 -0.0340  0.1180
    1WF      WF69276  26.928  12.683   0.664  0.1802 -0.3140 -0.0340
    1WF      WF69277   4.476  13.046   8.334 -0.1029 -0.1326  0.2451
    1WF      WF69278  15.583  24.580   1.017  0.2141 -0.1426 -0.2697
    1WF      WF69279  11.182  28.404   1.226 -0.1081 -0.1675  0.2089
    1WF      WF69280  28.030  20.108   7.136 -0.2363  0.1458 -0.1341
    1WF      WF69281  16.219   5.169   6.709 -0.0749  0.0781 -0.1421
    1WF      WF69282   6.066   8.888   1.194  0.1708 -0.0337 -0.2663
    1WF      WF69283   9.426  12.102   8.392  0.1030  0.0829  0.0474
    1WF      WF69284   2.261  13.439   8.340 -0.1563  0.0448 -0.0746
    1WF      WF69285  13.060  23.426   1.141  0.1168  0.0770  0.0283
    1WF      WF69286   5.950   5.981   8.731 -0.1271 -0.2347  0.0121
    1WF      WF69287  12.089  20.383   8.357  0.1018 -0.2799  0.0558
    1WF      WF69288  21.346  19.176   8.297 -0.0819 -0.1631  0.0133
    1WF      WF69289   6.347  26.146   7.529  0.5790  0.1344 -0.2766
    1WF      WF69290  23.357  13.483   8.576  0.2404 -0.0108 -0.1492
    1WF      WF69291   4.195   6.629   0.296  0.1384 -0.1643 -0.0402
    1WF      WF69292   7.509   7.372   7.648 -0.1624 -0.0954 -0.0872
    1WF      WF69293  28.191   4.328   7.011 -0.0487 -0.1157 -0.0011
    1WF      WF69294  23.405  10.167   6.521 -0.0600 -0.2288 -0.2244
    1WF      WF69295  16.225  10.582   0.980  0.1388 -0.3665  0.4349
    1WF      WF69296   1.061  22.593   6.961  0.2867  0.0565 -0.0602
    1WF      WF69297  13.304   5.842   0.477 -0.1338  0.1980  0.2480
    1WF      WF69298  21.400   7.815   0.318 -0.0334  0.1437  0.1938
    1WF      WF69299  17.518  25.381   2.315  0.0365  0.0881 -0.1720
    1WF      WF69300   0.907  10.253   0.753  0.1255 -0.1928  0.0666
    1WF      WF69301  12.258  20.973   0.157  0.2844 -0.0433 -0.3078
    1WF      WF69302  16.889  26.501   8.759 -0.1338 -0.0551  0.5422
    1WF      WF69303   5.794  11.466   8.395 -0.1292  0.0848  0.4054
    1WF      WF69304  17.367   3.320   1.549 -0.0720  0.0431 -0.0156
    1WF      WF69305   7.571  12.404   1.459  0.2471 -0.0992 -0.2268
    1WF      WF69306   1.827  22.096   7.655 -0.3177 -0.0610 -0.0970
    1WF      WF69307   0.806   2.455   0.296 -0.0380  0.4309  0.0428
    1WF      WF69308   9.746  17.455   1.021  0.3195  0.3161  0.1050
    1WF      WF69309  14.168  26.733   1.470  0.1624  0.0242 -0.0620
    1WF      WF69310  18.240  23.675   7.166  0.0794  0.0320  0.1408
    1WF      WF69311  10.913  22.468   8.995  0.2379  0.1784 -0.3253
    1WF      WF69312   3.296   3.795   8.741 -0.2096  0.0423  0.2260
    1WF      WF69313  15.603   0.081   7.350 -0.2564 -0.0770 -0.0923
    1WF      WF69314   6.744  19.284   8.205 -0.0851  0.0715 -0.0615
    1WF      WF69315  10.320  20.967   9.012 -0.1687 -0.0016 -0.1817
    1WF      WF69316  18.359  24.875   9.263  0.2185  0.1714 -0.1126
    1WF      WF69317   9.863   0.898   7.691 -0.1604 -0.2860  0.1565
    1WF      WF69318  18.129  13.953   7.830 -0.1904 -0.1997 -0.0348
    1WF      WF69319   9.706  16.454   8.194 -0.0922 -0.0871  0.3297
    1WF      WF69320  22.707  15.250   8.973  0.1882  0.1493 -0.2557
    1WF      WF69321   8.191  22.920   8.617 -0.1261  0.2161  0.1640
    1WF      WF69322  18.923  10.971   1.782  0.1270 -0.1159  0.1901
    1WF      WF69323  16.929  27.419   6.343 -0.1513  0.0103 -0.0139
    1WF      WF69324  14.735   8.436   7.851  0.1296  0.1964 -0.0074
    1WF      WF69325   2.043  15.051   8.772  0.2441  0.0934 -0.0076
    1WF      WF69326  13.883  24.375   8.139 -0.3665  0.0669  0.0082
    1WF      WF69327  29.618  28.870   1.958  0.0055  0.2574  0.1843
    1WF      WF69328  12.492   4.861   1.482 -0.0989  0.3563  0.1819
    1WF      WF69329  11.343  28.970   0.615  0.0508  0.0028  0.0280
    1WF      WF69330   8.063  17.923   0.817 -0.0880 -0.0775 -0.3547
    1WF      WF69331   2.465   3.052   9.245 -0.1947 -0.0418  0.1482
    1WF      WF69332  27.090  23.558   0.216  0.2836 -0.1500  0.0090
    1WF      WF69333  22.078  12.373   6.385 -0.1184  0.2969  0.2556
    1WF      WF69334  26.840  10.490   9.182  0.3922  0.1186  0.0087
    1WF      WF69335  11.309  10.607   8.438 -0.0344  0.2480  0.1621
    1WF      WF69336  13.364  10.929   8.407  0.0063  0.2291 -0.4577
    1WF      WF69337   1.141   9.174   9.030  0.3424 -0.0179 -0.0434
    1WF      WF69338  12.568  25.244   8.185  0.0243 -0.0145  0.1419
    1WF      WF69339   5.021   1.923   8.548  0.5079 -0.2650  0.1670
    1WF      WF69340  30.002  24.393   0.319 -0.0976  0.1277  0.2050
    1WF      WF69341  12.382  29.844   9.205 -0.0357  0.0194  0.1502
    1WF      WF69342  11.402  24.018   0.140 -0.0051 -0.0115 -0.1751
    1WF      WF69343   8.134  21.544   6.666 -0.1323  0.1657 -0.0427
    1WF      WF69344  18.783  29.011   1.461 -0.1139  0.2827  0.4320
    1WF      WF69345   4.294   2.752   2.641  0.2999 -0.1386 -0.3338
    1WF      WF69346   3.284   6.386   7.647  0.0079 -0.2697 -0.0513
    1WF      WF69347  27.008  18.915   1.726 -0.0090  0.1053 -0.1851
    1WF      WF69348  22.282   6.533   1.717 -0.1444  0.0607  0.3923
    1WF      WF69349  11.526  23.355   7.517  0.1911  0.0320  0.2930
    1WF      WF69350  19.699  10.339   6.155  0.2294  0.1495 -0.2166
    1WF      WF69351  21.857  29.711   2.302  0.0311  0.1790 -0.0040
    1WF      WF69352   4.534  22.054   0.371 -0.1161  0.0403 -0.0683
    1WF      WF69353  18.893   7.063   0.143  0.0125  0.0600 -0.0864
    1WF      WF69354   4.740  14.711   9.207  0.2512 -0.0468 -0.3298
    1WF      WF69355   3.279  19.622   7.599  0.1555  0.0846 -0.2395
    1WF      WF69356  23.184  20.377   0.136  0.0654  0.1899 -0.0691
    1WF      WF69357  18.680  11.167   1.410 -0.0309 -0.1451  0.2078
    1WF      WF69358  17.645  11.798   1.763  0.0122 -0.1129  0.0899
    1WF      WF69359  15.504  11.778   9.105  0.0738 -0.2371 -0.0255
    1WF      WF69360  23.099   4.971   7.315 -0.0503  0.1658 -0.1036
    1WF      WF69361  18.891  15.958   8.946 -0.0617  0.1329 -0.2950
    1WF      WF69362  23.154   4.464   9.088  0.0745 -0.2207 -0.4357
    1WF      WF69363  18.094   1.045   8.102  0.0190  0.2561 -0.1026
    1WF      WF69364  18.037  18.524   8.584  0.2035  0.0607  0.0348
    1WF      WF69365  17.655  25.354   7.794  0.2081  0.0933  0.1337
    1WF      WF69366  16.255  10.194   0.654  0.1027 -0.0155 -0.3490
    1WF      WF69367  14.945  24.678   7.655 -0.2401 -0.1797 -0.0348
    1WF      WF69368  11.186  15.168   2.074 -0.1743 -0.0755  0.2195
    1WF      WF69369  11.159  21.152   0.327 -0.1990  0.1795 -0.1160
    1WF      WF69370   1.915   7.424   1.595  0.0443 -0.1944  0.2324
    1WF      WF69371  24.915  23.583   0.487  0.1852 -0.1389 -0.3634
    1WF      WF69372  16.923  16.279   6.857  0.1118  0.0512 -0.0210
    1WF      WF69373  10.396  27.201   1.822  0.2835 -0.1410 -0.3924
    1WF      WF69374  11.987  15.175   7.707 -0.1994  0.0122 -0.1595
    1WF      WF69375  19.299  22.224   8.007 -0.2443  0.1597  0.2588
    1WF      WF69376  27.317  24.855   7.527 -0.0180 -0.2278  0.1753
    1WF      WF69377   3.622  23.070   8.275 -0.2916 -0.1613  0.0441
    1WF      WF69378  24.542  24.871   8.486 -0.2052 -0.0100 -0.3838
    1WF      WF69379  21.502  15.059   1.314  0.1828 -0.1071  0.4210
    1WF      WF69380  22.327  24.557   2.605  0.1841  0.2879 -0.1689
    1WF      WF69381   2.329   3.546   2.172  0.0686 -0.1562 -0.1907
    1WF      WF69382   7.573   9.816   1.389  0.1538 -0.0560 -0.0432
    1WF      WF69383  27.884  15.502   7.839 -0.2467  0.1635 -0.0679
    1WF      WF69384  22.023  26.249   1.002  0.0286  0.1362 -0.1408
    1WF      WF69385  18.347  14.904   8.821  0.0626  0.1308  0.1006
    1WF      WF69386  12.112  15.713   1.272  0.2768  0.0892  0.0445
    1WF      WF69387   8.526   4.933   7.946 -0.1382  0.1167 -0.0121
    1WF      WF69388   3.019   8.014   0.860 -0.1399  0.0810 -0.0539
    1WF      WF69389  25.861  21.638   7.746 -0.1550  0.1314 -0.1242
    1WF      WF69390  29.391  23.606   8.151  0.3895  0.0847  0.0941
    1WF      WF69391   8.765   8.535   1.146  0.0182  0.0940 -0.0549
    1WF      WF69392  14.280  11.838   2.196  0.1604 -0.0586  0.5131
    1WF      WF69393   1.116   7.009   1.020 -0.0321  0.2230 -0.2462
    1WF      WF69394  22.122  13.098   7.345  0.2410  0.2202 -0.1899
    1WF      WF69395  25.287  20.996   8.326  0.0547  0.1021  0.1360
    1WF      WF69396   5.925  22.576   8.911 -0.2747  0.1041 -0.3261
    1WF      WF69397   0.178  25.118   0.778  0.0701  0.1253 -0.2929
    1WF      WF69398   8.677   9.614   8.150  0.0838 -0.1482  0.3905
    1WF      WF69399  26.329   8.260   1.114  0.0421 -0.0144  0.1847
    1WF      WF69400  18.693   2.088   8.052  0.0169 -0.1162  0.0707
    1WF      WF69401  15.698  16.179   7.951  0.3322 -0.0667  0.0574
    1WF      WF69402  21.002  17.485   0.657  0.1726 -0.2016  0.0350
    1WF      WF69403  23.727  15.251   7.286 -0.1936  0.0240  0.0128
    1WF      WF69404  21.163  24.538   0.545  0.1041  0.1701 -0.0334
    1WF      WF69405   5.521  11.350   7.927  0.1530  0.0106 -0.0033
    1WF      WF69406  17.800  25.725   0.846  0.1063 -0.1325  0.2134
    1WF      WF69407  11.366  19.317   0.534  0.0171 -0.0009 -0.0241
    1WF      WF69408  26.725  30.121   9.067  0.1715 -0.0370  0.2110
    1WF      WF69409   9.108  28.571   6.605  0.1765  0.0050 -0.2996
    1WF      WF69410  17.076  24.851   9.259  0.0662  0.0288  0.0312
    1WF      WF69411  23.167  22.603   1.372 -0.0407  0.0723  0.0488
    1WF      WF69412  10.150   3.366   7.080  0.3834  0.5321 -0.0053
    1WF      WF69413  10.006  15.190   8.431  0.1720 -0.1915 -0.0297
    1WF      WF69414  14.935   0.357   0.216  0.1318 -0.1357  0.2807
    1WF      WF69415   4.462  10.473   1.686  0.0268  0.4101 -0.1125
    1WF      WF69416  13.881   3.045   9.215 -0.0570  0.1979  0.0348
    1WF      WF69417   7.056  20.385   6.838  0.1503  0.1005 -0.1259
    1WF      WF69418   7.091  23.484   0.433  0.0361 -0.3650  0.0127
    1WF      WF69419   7.104  20.268   8.990 -0.2014  0.2733 -0.0177
    1WF      WF69420  17.063   3.135   9.222  0.1138  0.0342  0.1266
    1WF      WF69421  14.429  23.526   6.877  0.3800  0.0144 -0.0456
    1WF      WF69422  24.314   3.079   3.557  0.2356  0.0831 -0.2224
    1WF      WF69423   1.016  20.095   8.045 -0.3339 -0.0899 -0.0808
    1WF      WF69424  28.399  17.131   8.152  0.1084 -0.0641 -0.0745
    1WF      WF69425  26.415  10.703   0.293  0.4454 -0.4042 -0.1405
    1WF      WF69426  20.949  18.617   8.292 -0.0036  0.0291  0.4230
    1WF      WF69427  12.628  17.600   0.672  0.1159 -0.3776 -0.1119
    1WF      WF69428  22.467  10.663   7.524  0.0221  0.0576 -0.0547
    1WF      WF69429   3.824   9.458   7.784 -0.0062  0.1632  0.3780
    1WF      WF69430  25.766   9.652   7.207  0.1656  0.2499  0.0895
    1WF      WF69431   6.358  19.315   8.697 -0.1618 -0.1045 -0.2625
    1WF      WF69432   6.807  21.395   7.332 -0.3740 -0.1334 -0.1703
    1WF      WF69433  19.990   2.794   7.714 -0.0373  0.2994  0.1888
    1WF      WF69434  13.431  29.281   0.666 -0.1336  0.2084  0.1751
    1WF      WF69435  19.410  25.197   0.390 -0.2829 -0.0191 -0.1882
    1WF      WF69436  23.738   8.135   5.744  0.1100  0.2076  0.2988
    1WF      WF69437  25.467  17.236   8.263 -0.0056 -0.1939 -0.3556
    1WF      WF69438  27.562  10.338   7.812 -0.0332  0.1584 -0.0434
    1WF      WF69439   6.137  18.237   8.307 -0.2066 -0.0629  0.0643
    1WF      WF69440  23.611  27.133   0.369 -0.0689 -0.0310 -0.4065
    1WF      WF69441  16.854  17.188   7.669  0.2628 -0.3167  0.3515
    1WF      WF69442  21.585  25.313   8.682  0.0244 -0.1581 -0.1464
    1WF      WF69443  24.316   0.337   8.588  0.0501 -0.0083  0.1214
    1WF      WF69444  18.376  19.305   8.991  0.1792 -0.0578 -0.2655
    1WF      WF69445  17.053  13.617   1.286  0.1492 -0.0986  0.0623
    1WF      WF69446  15.920  21.960   8.835  0.0885  0.1294 -0.0540
    1WF      WF69447  10.223   8.065   0.724 -0.3087  0.4259  0.3789
    1WF      WF69448  24.815   8.794   0.441 -0.2774 -0.0536  0.0381
    1WF      WF69449   2.281  27.024   2.528  0.1839 -0.0307  0.0258
    1WF      WF69450  20.547   9.524   9.228  0.2449  0.3385 -0.3381
    1WF      WF69451  26.249   9.860   7.436  0.0842  0.0479  0.2298
    1WF      WF69452  23.905  17.962   6.801 -0.0032 -0.3356  0.2867
    1WF      WF69453  13.882  10.577   7.818 -0.0609  0.0339 -0.2348
    1WF      WF69454  20.841  17.030   8.401  0.3396 -0.2493 -0.0594
    1WF      WF69455  27.662   6.922   0.039 -0.2802  0.3281  0.0756
    1WF      WF69456   2.970  14.511   7.782  0.4061  0.0822  0.1872
    1WF      WF69457  28.457  12.169   8.774 -0.0188  0.1147  0.0672
    1WF      WF69458  11.978   1.470   2.900 -0.1765 -0.0973 -0.0589
    1WF      WF69459   8.076  25.182   9.061 -0.0836  0.0138 -0.1674
    1WF      WF69460  18.369  24.397   9.245  0.1605  0.1212 -0.2986
    1WF      WF69461  10.251  21.895   9.035  0.0334 -0.4193 -0.1689
    1WF      WF69462   4.121  21.216   1.884  0.1058  0.0480  0.1082
    1WF      WF69463   0.010  14.353   7.457 -0.0221  0.1174  0.1567
    1WF      WF69464  27.604   6.868   1.053  0.3118 -0.1006  0.2960
    1WF      WF69465  24.794  28.523   8.220  0.2307 -0.0206 -0.1041
    1WF      WF69466  30.015   8.859   8.680  0.0148  0.0333  0.3038
    1WF      WF69467  29.382   8.110   0.738 -0.0032  0.0998  0.3690
    1WF      WF69468  21.854  11.997   0.596 -0.0246  0.1052  0.1040
    1WF      WF69469  11.876   8.001   1.846 -0.1602 -0.1634  0.1983
    1WF      WF69470  11.296  15.407   2.544  0.1012 -0.1060  0.3611
    1WF      WF69471  10.651   3.392   8.450  0.1895  0.0640 -0.1479
    1WF      WF69472   3.455  21.829   0.498  0.1744  0.2548 -0.1457
    1WF      WF69473  27.120   8.569   9.027 -0.1266  0.0301  0.1976
    1WF      WF69474   3.262   5.260   0.498  0.0485 -0.0940  0.3993
    1WF      WF69475   7.510  30.165   1.794 -0.0391  0.0028  0.0694
    1WF      WF69476   8.803  23.977   1.726  0.0114 -0.1511 -0.1186
    1WF      WF69477  14.487  21.485   7.882  0.1165 -0.1552 -0.2282
    1WF      WF69478  28.711  13.363   8.021  0.1846 -0.1076  0.1978
    1WF      WF69479  23.505  13.684   9.141 -0.1306  0.0089 -0.4329
    1WF      WF69480  13.453   2.821   7.795 -0.1229 -0.0906  0.0351
    1WF      WF69481  29.223  30.105   2.992  0.1397  0.0120 -0.3499
    1WF      WF69482  21.163  23.411   0.529 -0.0873 -0.3413 -0.1912
    1WF      WF69483  29.359  11.800   0.499  0.1147 -0.3904  0.0382
    1WF      WF69484  25.361   1.903   0.071  0.0860  0.0225  0.0766
    1WF      WF69485  29.473   4.437   0.111 -0.0594 -0.2389  0.2371
    1WF      WF69486  14.917   5.813   8.409  0.2506 -0.0204 -0.1449
    1WF      WF69487  21.567  19.086   0.823 -0.3543 -0.2235  0.4421
    1WF      WF69488  20.847  23.807   0.362 -0.0139 -0.1194 -0.1901
    1WF      WF69489   5.102   3.099   7.473 -0.0216  0.0385 -0.0826
    1WF      WF69490  16.660  13.922   3.913 -0.0655  0.0496  0.0475
    1WF      WF69491  21.403  15.954   7.150  0.2980  0.2495 -0.0736
    1WF      WF69492   0.158   5.221   8.570 -0.1763  0.1572  0.3440
    1WF      WF69493   1.917  13.289   6.402  0.2768 -0.0190 -0.4703
    1WF      WF69494   8.868  28.743   8.811  0.1068  0.3405  0.0257
    1WF      WF69495   5.599  15.450   2.321  0.1639 -0.2196 -0.0760
    1WF      WF69496   8.131   1.015   7.462  0.1391 -0.1632  0.0604
    1WF      WF69497  20.702  25.835   7.240 -0.0210  0.1546  0.3544
    1WF      WF69498  27.097  28.908   8.810  0.0066  0.1447  0.4226
    1WF      WF69499   7.922  28.666   8.274  0.1780  0.0002 -0.0652
    1WF      WF69500  23.767   4.618   0.101  0.0526  0.2691  0.0095
    1WF      WF69501  11.245  20.172   1.876 -0.5889  0.1862 -0.3398
    1WF      WF69502  26.856   5.944   0.931 -0.1351  0.0586  0.0526
    1WF      WF69503  11.440   4.032   6.796  0.2371 -0.2491  0.1868
    1WF      WF69504   9.031  14.193   2.800 -0.1933  0.1214 -0.0623
    1WF      WF69505   9.877  17.161   0.586 -0.0219  0.0290 -0.0799
    1WF      WF69506  19.247   6.564   1.198 -0.2060  0.0907 -0.2317
    1WF      WF69507  13.679   3.097   3.291  0.0763 -0.1792 -0.0873
    1WF      WF69508  21.515   5.005   0.053 -0.4313 -0.1122  0.1645
    1WF      WF69509   9.227   4.521   1.645  0.1546 -0.1287  0.0064
    1WF      WF69510  10.368  19.771   8.701  0.0315 -0.2297  0.1770
    1WF      WF69511  21.873  12.087   0.122  0.5030  0.1117 -0.0973
    1WF      WF69512  22.832   5.655   7.810  0.2281 -0.2141  0.0374
    1WF      WF69513  12.953   9.073   0.360  0.2820  0.2080  0.0667
    1WF      WF69514  14.136  28.458   0.422  0.0668  0.2319  0.1218
    1WF      WF69515  22.092  29.239   6.309 -0.4229  0.0316 -0.2015
    1WF      WF69516   5.458   7.543   8.158 -0.0932  0.2183 -0.1144
    1WF      WF69517   0.077   8.709   8.835  0.1286 -0.0646  0.1640
    1WF      WF69518  17.359  18.652   1.050  0.0238  0.1256  0.2993
    1WF      WF69519  22.366  29.519   2.046 -0.1893 -0.2804  0.3104
    1WF      WF69520  23.539   5.087   0.344 -0.0329 -0.1576 -0.2137
    1WF      WF69521  25.054  26.339   7.900  0.0364 -0.0920 -0.2026
    1WF      WF69522  10.656   4.654   8.691  0.0416 -0.0865 -0.2505
    1WF      WF69523  26.004  25.004   1.234  0.1111  0.1233  0.1845
    1WF      WF69524  15.743  18.340   7.507 -0.1186 -0.0213 -0.0998
    1WF      WF69525  25.574   1.385   4.173 -0.2283 -0.4152 -0.2050
    1WF      WF69526  19.617   8.928   7.336  0.0583 -0.2032  0.1499
    1WF      WF69527   6.705  27.768   1.104  0.0135 -0.0882 -0.4308
    1WF      WF69528  13.725   5.329   7.173 -0.1048 -0.1465 -0.0523
    1WF      WF69529  12.240  28.263   0.909 -0.1309 -0.4226  0.0182
    1WF      WF69530  20.465   9.774   8.187 -0.2582  0.1545 -0.2270
    1WF      WF69531  27.616   5.197   1.048  0.1473  0.1172 -0.1023
    1WF      WF69532  26.880  13.906   7.791 -0.2309  0.2074 -0.1239
    1WF      WF69533  26.084   1.516   2.163 -0.1374  0.0740  0.0015
    1WF      WF69534   3.307   9.258   6.748 -0.5224 -0.0514  0.0782
    1WF      WF69535  10.855  19.181   8.603 -0.3672  0.0893  0.5039
    1WF      WF69536  23.581   7.174   0.719  0.2838  0.0170 -0.0980
    1WF      WF69537  27.065   6.430   6.710  0.0227  0.0832  0.2157
    1WF      WF69538  11.141  27.451   2.515 -0.0651  0.0316 -0.0522
    1WF      WF69539  14.604  24.792   2.021 -0.0955 -0.1955  0.0364
    1WF      WF69540  11.122   1.673   0.247  0.2364  0.5777 -0.0164
    1WF      WF69541  19.305  13.442   7.887 -0.0233 -0.0866  0.0218
    1WF      WF69542  22.440  28.417   8.357  0.2609  0.0723 -0.0226
    1WF      WF69543  17.509  29.515   8.643  0.1444  0.0098 -0.1426
    1WF      WF69544   0.561   7.237   0.163  0.1325 -0.2137 -0.1928
    1WF      WF69545  25.664  23.293   7.765 -0.0163 -0.2717 -0.1925
    1WF      WF69546  12.313  22.403   1.139  0.1124 -0.0157 -0.2046
    1WF      WF69547  24.180  15.542   7.231  0.0722  0.0454  0.1382
    1WF      WF69548  15.525  16.056   2.546 -0.1002 -0.2383 -0.2688
    1WF      WF69549  16.019  16.163   0.321  0.0050  0.0837  0.3028
    1WF      WF69550   5.104  24.172   2.213 -0.2384  0.2699  0.2147
    1WF      WF69551   0.216   9.300   1.797 -0.1564  0.0379  0.2828
    1WF      WF69552  17.855   4.507   7.428  0.0809 -0.2655  0.1613
    1WF      WF69553  16.496  27.048   7.297  0.0335  0.0367 -0.1592
    1WF      WF69554  28.736  27.062   7.438  0.0296 -0.1821 -0.2699
    1WF      WF69555  28.868   9.394   8.801 -0.0265 -0.0267  0.1957
    1WF      WF69556  23.339   0.561   8.581  0.0456 -0.0145 -0.1225
    1WF      WF69557   1.873  26.719   2.760 -0.1441  0.0163 -0.0745
    1WF      WF69558   5.945   5.527   8.977 -0.1170 -0.1594  0.0563
    1WF      WF69559  15.984   3.378   3.183 -0.1322  0.2949 -0.3005
    1WF      WF69560  17.113   4.708   1.449 -0.0240 -0.2625 -0.2363
    1WF      WF69561   5.460  24.249   7.852  0.5142  0.0168  0.1078
    1WF      WF69562   8.589  29.939   1.478  0.3202  0.2511 -0.1053
    1WF      WF69563   7.162   7.588   8.550 -0.4381  0.0051  0.1994
    1WF      WF69564  11.140  20.751   0.670  0.2186  0.0166  0.4998
    1WF      WF69565  15.194  23.053   6.675 -0.3769 -0.2632 -0.0012
    1WF      WF69566   3.026   4.995   1.059 -0.1910 -0.0026 -0.0462
    1WF      WF69567  17.551  15.889   7.231 -0.3314  0.0769  0.1790
    1WF      WF69568   6.577  27.816   8.030  0.1809  0.1018 -0.5093
    1WF      WF69569  16.125  20.114   7.370 -0.1059  0.1129  0.0805
    1WF      WF69570  23.039  28.160   1.972  0.2646 -0.2499 -0.1573
    1WF      WF69571  19.769  25.075   7.738  0.0344 -0.1484 -0.2451
    1WF      WF69572  19.159  22.932   0.219 -0.1607  0.3449 -0.0922
    1WF      WF69573   5.182   1.164   9.251 -0.6698 -0.5522 -0.1743
    1WF      WF69574  23.366  18.181   0.238 -0.1267  0.2113  0.0742
    1WF      WF69575  15.796   3.566   7.844  0.3316 -0.1788 -0.0466
    1WF      WF69576   8.264  11.421   8.866  0.0808 -0.0772  0.2884
    1WF      WF69577  21.278   0.525   7.828  0.0337  0.0412 -0.0565
    1WF      WF69578  16.638  20.595   1.482  0.2855 -0.0815 -0.2364
    1WF      WF69579  11.165   0.115   9.135  0.1079  0.3552 -0.2162
    1WF      WF69580  29.453  19.164   0.490  0.4326 -0.0004 -0.4724
    1WF      WF69581  10.601  26.107   6.421 -0.4185 -0.1196 -0.1016
    1WF      WF69582  15.022  29.540   8.487 -0.0310 -0.1869  0.0333
    1WF      WF69583   2.845   2.831   0.189 -0.0900  0.4157  0.2473
    1WF      WF69584   7.587  17.511   0.863  0.0753 -0.1544  0.0540
    1WF      WF69585  23.813  26.927   2.459 -0.2469  0.0586 -0.2220
    1WF      WF69586   6.804  10.713   2.570  0.0887  0.3378 -0.1111
    1WF      WF69587  25.554   7.762   7.597  0.2148  0.0804  0.1249
    1WF      WF69588  15.944  20.005   1.189 -0.3100 -0.2218  0.0296
    1WF      WF69589  18.103   9.271   8.055  0.0620 -0.3988  0.0232
    1WF      WF69590   4.570   9.948   8.805 -0.2955  0.2448  0.0258
    1WF      WF69591  18.334   8.932   1.015 -0.3552 -0.2383 -0.2128
    1WF      WF69592   3.772  17.045   7.885 -0.0468 -0.0404  0.0089
    1WF      WF69593  10.321   7.647   8.977 -0.2343 -0.2428  0.0202
    1WF      WF69594  15.409   2.898   1.652 -0.3496 -0.0888  0.1081
    1WF      WF69595  30.114  16.781   9.233 -0.0786 -0.2081 -0.0934
    1WF      WF69596  26.404  11.505   8.343 -0.3339  0.1318 -0.0178
    1WF      WF69597  20.107   3.290   7.714  0.0086  0.0990  0.2730
    1WF      WF69598   4.502   4.613   0.803 -0.0701 -0.2117  0.0762
    1WF      WF69599  27.231  20.052   0.300  0.1144 -0.0079  0.3286
    1WF      WF69600  21.241   8.538   6.874 -0.0792  0.2924 -0.1253
    1WF      WF69601   6.045  12.363   2.692  0.0859  0.4050 -0.0729
    1WF      WF69602  29.133   2.062   0.127 -0.0225 -0.2250 -0.0478
    1WF      WF69603   7.295  16.872   8.368 -0.0107 -0.3525 -0.1015
    1WF      WF69604  28.674  27.399   7.899  0.0456 -0.0101  0.0073
    1WF      WF69605  21.396  15.198   6.949 -0.1125 -0.1261  0.0332
    1WF      WF69606  26.503   6.248   1.077 -0.0247  0.1119  0.1725
    1WF      WF69607  19.247  14.019   0.831  0.3758 -0.1545 -0.0323
    1WF      WF69608  13.120  24.522   7.948 -0.2612 -0.2016 -0.0699
    1WF      WF69609  25.125  28.496   1.361 -0.0675  0.0993  0.0448
    1WF      WF69610   1.972   7.765   8.612 -0.2321 -0.0001  0.2285
    1WF      WF69611   2.762  22.023   8.417 -0.1329  0.1938 -0.4162
    1WF      WF69612  16.408  25.629   2.099 -0.1848  0.3141  0.2027
    1WF      WF69613  14.584  11.501   1.275  0.1072  0.3037 -0.0463
    1WF      WF69614  18.973   2.884   7.593 -0.2904 -0.1571 -0.0500
    1WF      WF69615   5.380  29.781   9.070  0.0426 -0.0552 -0.1740
    1WF      WF69616  12.904  16.385   2.884 -0.1542 -0.1372  0.0203
    1WF      WF69617  25.202   0.172   9.018 -0.0432 -0.0804  0.1050
    1WF      WF69618  16.111  16.406   1.699 -0.4432  0.0434 -0.3003
    1WF      WF69619  16.124  22.389   7.921  0.0102 -0.0200  0.1003
    1WF      WF69620   7.752  19.824   8.472  0.0247  0.0389  0.3710
    1WF      WF69621   2.803  29.723   1.208 -0.2184  0.2203 -0.4938
    1WF      WF69622  25.869  18.126   7.284  0.3695 -0.1556  0.3698
    1WF      WF69623  12.612  24.055   0.950 -0.0600  0.0371  0.0622
    1WF      WF69624  21.435  29.664   8.133  0.2492  0.3757  0.0037
    1WF      WF69625  14.418  11.897   4.103 -0.1720 -0.4916  0.4083
    1WF      WF69626  15.551  11.496   2.884 -0.0604  0.0169 -0.1690
    1WF      WF69627  23.224  24.147   8.795 -0.0043  0.1386 -0.1009
    1WF      WF69628  22.207  11.533   8.706  0.0536  0.1104  0.0958
    1WF      WF69629  18.352  19.244   1.286 -0.2421 -0.2697  0.0158
    1WF      WF69630  15.016  11.593   2.770  0.1788  0.3815  0.1475
    1WF      WF69631  27.120  12.924   0.225  0.0921 -0.0500  0.2515
    1WF      WF69632   7.629   7.891   8.481  0.0293 -0.0607 -0.0782
    1WF      WF69633   6.723   9.535   8.571  0.2063 -0.0414  0.0123
    1WF      WF69634  25.029  22.517   0.595 -0.2141  0.2863 -0.1845
    1WF      WF69635   9.425  20.834   6.262 -0.1772  0.1377 -0.0580
    1WF      WF69636  21.973  23.788   8.227 -0.2478 -0.1614 -0.0464
    1WF      WF69637  25.226   2.923   8.363 -0.1675 -0.2200 -0.2267
    1WF      WF69638  18.151  13.552   2.878  0.1977 -0.3535  0.0916
    1WF      WF69639  24.630  26.343   1.564  0.2962  0.3017 -0.0249
    1WF      WF69640  20.759  12.859   8.112 -0.0786  0.2644 -0.1310
    1WF      WF69641  12.189  10.379   7.546  0.1421  0.5102 -0.2024
    1WF      WF69642  13.880   0.657   6.866 -0.0725 -0.1970 -0.5049
    1WF      WF69643   1.566  16.777   7.676 -0.1050 -0.1098 -0.1896
    1WF      WF69644   1.654  12.501   9.149 -0.0029 -0.0502  0.1995
    1WF      WF69645  17.551  16.674   8.439  0.1961  0.0410  0.1361
    1WF      WF69646  26.887  10.924   0.465  0.3783 -0.1060 -0.0914
    1WF      WF69647   8.572  19.168   7.659 -0.2104  0.0369  0.1585
    1WF      WF69648  25.393  25.429   0.489 -0.0581 -0.0447 -0.0044
    1WF      WF69649  22.139   3.317   8.152  0.1822  0.0395 -0.2730
    1WF      WF69650  25.544   9.010   0.056  0.1873 -0.0918 -0.0930
    1WF      WF69651  25.063  23.278   7.840  0.3826  0.1091  0.3138
    1WF      WF69652  19.228  29.234   9.056  0.0044  0.0936  0.1297
    1WF      WF69653   9.456  12.590   8.632  0.1639  0.1713  0.2620
    1WF      WF69654   1.911   0.780   8.512 -0.1079  0.0454 -0.4274
    1WF      WF69655  27.259  17.049   8.301  0.0316 -0.1567  0.1221
    1WF      WF69656  15.342  15.555   2.056  0.0147  0.0093 -0.0065
    1WF      WF69657   9.387  19.103   9.201  0.2318 -0.0730  0.2056
    1WF      WF69658  13.827  14.962   8.796 -0.0208  0.0139 -0.0276
    1WF      WF69659  13.567  21.770   7.346 -0.0081  0.0486 -0.0370
    1WF      WF69660  11.116  28.493   0.710 -0.3121  0.0117 -0.2136
    1WF      WF69661  20.331   7.405   8.444 -0.3449 -0.0416 -0.0512
    1WF      WF69662  23.297   1.163   2.119  0.0980  0.1352 -0.0789
    1WF      WF69663   1.551  12.743   1.780  0.0297 -0.0671  0.0101
    1WF      WF69664   8.595  26.595   6.244  0.0607 -0.3457 -0.1511
    1WF      WF69665  14.919   1.013   1.746 -0.0331 -0.3785 -0.4586
    1WF      WF69666  18.432  15.264   8.439 -0.1547  0.1534 -0.3301
    1WF      WF69667   2.046  10.935   8.988 -0.2777 -0.3089  0.2229
    1WF      WF69668  25.044   5.393   1.338  0.0815  0.1440  0.0640
    1WF      WF69669  26.915  25.825   8.450  0.2112 -0.0431 -0.1903
    1WF      WF69670   8.981  11.744   6.345 -0.0712 -0.1431 -0.0056
    1WF      WF69671   2.962  21.515   8.488 -0.1061  0.0059 -0.1724
    1WF      WF69672   1.174  25.328   1.275  0.0249 -0.1708  0.3113
    1WF      WF69673  17.192  14.945   2.632  0.2080  0.1651  0.1352
    1WF      WF69674  27.081  14.705   0.702  0.2408  0.1008 -0.1706
    1WF      WF69675  20.313   3.756   9.004 -0.0277  0.0984  0.0465
    1WF      WF69676  19.349   9.117   8.468  0.2764 -0.5117  0.0764
    1WF      WF69677  11.186  29.208   8.049 -0.0991 -0.3586  0.2205
    1WF      WF69678  29.707  18.943   8.902  0.0655 -0.1363 -0.0607
    1WF      WF69679  11.517  18.896   0.768  0.2141  0.2881 -0.1737
    1WF      WF69680   2.038  24.943   1.083 -0.0970  0.4501  0.1144
    1WF      WF69681  27.668  28.510   8.219  0.0086 -0.2186 -0.2318
    1WF      WF69682  13.888   7.573   8.508 -0.0538  0.3005  0.1635
    1WF      WF69683   4.341   0.619   0.169 -0.3772  0.1093  0.2059
    1WF      WF69684  26.783  13.786   8.246 -0.1257  0.0860 -0.0497
    1WF      WF69685  21.461  16.151   9.241 -0.0939  0.1951 -0.3467
    1WF      WF69686  26.257  13.820   8.167  0.0429 -0.3837  0.0722
    1WF      WF69687  28.991   1.103   2.360  0.2470 -0.1766  0.1889
    1WF      WF69688   1.687  14.659   8.411 -0.0805 -0.2978  0.0867
    1WF      WF69689  15.317  13.684   8.189 -0.2056  0.1336 -0.0985
    1WF      WF69690   0.390   0.445   8.006  0.0778 -0.1837  0.0698
    1WF      WF69691  23.592  24.512   8.653  0.0381 -0.1174 -0.1458
    1WF      WF69692   6.810  23.024   7.602  0.0695  0.0295 -0.1818
    1WF      WF69693  15.577  24.031   0.828  0.0386  0.1775  0.0954
    1WF      WF69694  16.954  29.672   1.013 -0.0802 -0.3544 -0.0695
    1WF      WF69695  27.767  17.411   7.423  0.1252  0.0091 -0.2934
    1WF      WF69696  12.397   4.030   2.540  0.1989  0.0772 -0.4069
    1WF      WF69697  10.713   3.424   0.600 -0.3069 -0.1279  0.0434
    1WF      WF69698  19.918  13.497   0.123  0.1036  0.2652  0.3483
    1WF      WF69699  29.884  16.843   0.376 -0.1100 -0.2471  0.3327
    1WF      WF69700  12.979  19.469   8.498  0.3104 -0.1147 -0.0582
    1WF      WF69701  29.658  17.731   0.008  0.3252  0.0618 -0.0324
    1WF      WF69702  20.337  17.088   8.577 -0.1792  0.0360 -0.2758
    1WF      WF69703  23.146   3.611   7.995  0.0703 -0.1109 -0.1442
    1WF      WF69704   8.854  16.214   0.864  0.0138 -0.2201  0.1366
    1WF      WF69705   1.076  10.716   0.617 -0.2572 -0.1393  0.2435
    1WF      WF69706  19.554  19.470   2.402 -0.1147 -0.3282 -0.2343
    1WF      WF69707  16.489  20.763   1.023  0.1049 -0.3472 -0.0601
    1WF      WF69708  13.173  21.979   2.967  0.2443 -0.0469  0.0834
    1WF      WF69709  17.097  29.354   8.913 -0.0719 -0.2480 -0.0329
    1WF      WF69710  30.049  29.093   1.202  0.1774  0.0737  0.4831
    1WF      WF69711   5.069  11.401   0.651  0.1804 -0.1226 -0.2072
    1WF      WF69712  14.060   2.314   1.336 -0.3435 -0.0387  0.0349
    1WF      WF69713  20.656  29.767   7.908  0.0147  0.0242 -0.1785
    1WF      WF69714  26.399  29.776   1.044 -0.1632  0.1411  0.0824
    1WF      WF69715  21.264   9.705   1.592 -0.1905  0.0933  0.0261
    1WF      WF69716  28.323   9.062   8.766 -0.3148 -0.1377 -0.0294
    1WF      WF69717   2.631  11.845   1.088  0.0410 -0.1762 -0.1343
    1WF      WF69718  10.027  29.958   9.095 -0.0250  0.1659 -0.2513
    1WF      WF69719  14.696  28.955   1.660  0.0007 -0.4046 -0.2198
    1WF      WF69720  29.203   8.040   0.251 -0.2905 -0.3010 -0.3050
    1WF      WF69721  14.489   0.521   8.647  0.0555  0.0129  0.3784
    1WF      WF69722  20.338  18.166   8.938 -0.1754  0.5040 -0.0891
    1WF      WF69723   9.300  22.259   7.987 -0.0256  0.1384 -0.1548
    1WF      WF69724  26.780  20.288   8.743 -0.1248  0.0407  0.0364
    1WF      WF69725  26.210  13.229   9.266  0.1799 -0.0251  0.0833
    1WF      WF69726  24.087  26.934   0.432  0.3211 -0.2215  0.0020
    1WF      WF69727  20.967   0.201   8.112  0.0369 -0.4995 -0.2594
    1WF      WF69728   3.265  24.966   0.317  0.4542  0.0899 -0.2746
    1WF      WF69729   4.992   0.620   0.274  0.3215  0.0204 -0.2487
    1WF      WF69730   1.902  19.378   8.242 -0.1550 -0.0075  0.2400
    1WF      WF69731  13.039  18.575   8.368  0.2112 -0.1847  0.3698
    1WF      WF69732  25.117  23.780   9.099 -0.1355  0.1839 -0.1113
    1WF      WF69733  15.137   9.422   6.848  0.0870 -0.3424 -0.0039
    1WF      WF69734  29.906   4.456   8.181 -0.0114 -0.2191  0.1549
    1WF      WF69735  11.142   7.532   0.131  0.2139  0.1817  0.1458
    1WF      WF69736  11.442  10.218   1.079 -0.0649 -0.1488  0.0605
    1WF      WF69737  29.794  28.498   8.472  0.0895  0.2172  0.1803
    1WF      WF69738  13.567   8.782   3.080 -0.0106  0.1480  0.1052
    1WF      WF69739  25.075  17.156   7.976  0.0039  0.1508  0.0101
    1WF      WF69740  16.260  12.565   1.358 -0.1465 -0.2847 -0.0770
    1WF      WF69741  16.173  15.603   7.620  0.1274 -0.0122  0.0119
    1WF      WF69742  29.931  19.350   0.634 -0.2823 -0.2513  0.1357
    1WF      WF69743   3.453  14.541   7.955 -0.1258 -0.0120  0.0069
    1WF      WF69744  13.086  27.551   8.440  0.0362  0.3440  0.1504
    1WF      WF69745   9.190  12.354   6.673 -0.0497 -0.0861 -0.0252
    1WF      WF69746  16.345  20.314   1.173 -0.0765 -0.1666  0.3333
    1WF      WF69747   1.114  24.145   8.224  0.1059  0.1582 -0.2677
    1WF      WF69748  12.137  25.590   0.540 -0.1339  0.2042  0.1052
    1WF      WF69749   1.370  23.031   1.404 -0.0531 -0.0794 -0.2238
    1WF      WF69750   6.826  20.679   9.012 -0.2591 -0.1267 -0.2736
    1WF      WF69751  13.626  10.467   7.322  0.0871  0.1160  0.0254
    1WF      WF69752  24.377  12.475   8.954  0.0703 -0.1070  0.0082
    1WF      WF69753  12.956   2.099   6.004 -0.1446  0.0184 -0.0347
    1WF      WF69754  20.758   5.716   1.866 -0.2126 -0.1067 -0.0525
    1WF      WF69755  17.064   6.590   8.664 -0.0611 -0.0218 -0.0969
    1WF      WF69756   7.548   3.277   0.401  0.3597  0.1240 -0.1896
    1WF      WF69757  12.669   9.141   3.587 -0.2897  0.1460 -0.1943
    1WF      WF69758   2.392   5.806   1.158  0.5331  0.2752 -0.1019
    1WF      WF69759  23.834  22.645   7.680  0.2201  0.1414  0.1518
    1WF      WF69760  25.518  20.463   8.429 -0.0276 -0.1265 -0.2227
    1WF      WF69761   2.392  17.932   8.526  0.0390 -0.0204  0.0834
    1WF      WF69762   1.814  13.541   8.545 -0.2615  0.2747 -0.1772
    1WF      WF69763  25.214  18.350   8.920 -0.1077 -0.0606 -0.0700
    1WF      WF69764  13.533  27.689   8.335 -0.2065 -0.4143  0.1234
    1WF      WF69765  11.354  12.053   8.424 -0.2075  0.0160 -0.2714
    1WF      WF69766  20.059  12.341   6.048 -0.0262  0.0108 -0.1702
    1WF      WF69767  20.060  14.773   1.443 -0.4597 -0.2460 -0.0503
    1WF      WF69768   1.307  10.187   8.288 -0.2004 -0.2465 -0.0920
    1WF      WF69769  11.427  18.456   8.138 -0.3416  0.0146  0.0825
    1WF      WF69770   5.361  17.958   0.824 -0.1999 -0.0301 -0.0556
    1WF      WF69771  27.803  29.467   2.658 -0.1517 -0.1708  0.1031
    1WF      WF69772  18.793  11.486   1.030  0.0573  0.0294 -0.0371
    1WF      WF69773  23.757  15.359   5.484 -0.1760 -0.0448 -0.2402
    1WF      WF69774  12.073   5.409   7.311  0.2159  0.1401  0.0592
    1WF      WF69775  11.619  12.768   8.469 -0.1562 -0.2063 -0.2864
    1WF      WF69776  27.590  25.160   2.661 -0.1766  0.3999  0.1545
    1WF      WF69777  27.502  20.200   7.311 -0.1990 -0.0330 -0.0669
    1WF      WF69778   9.663  13.200   1.934  0.1316  0.1998  0.0530
    1WF      WF69779  17.028  15.844   8.587 -0.2132  0.1219 -0.0890
    1WF      WF69780  26.528  24.205   8.745  0.3156  0.1707  0.1345
    1WF      WF69781   2.827  27.105   2.472 -0.1073 -0.2094  0.1122
    1WF      WF69782   3.557  30.342   7.098  0.0393  0.3738 -0.0626
    1WF      WF69783  29.953   9.721   0.684  0.2326 -0.0143 -0.2778
    1WF      WF69784   1.220  25.820   0.909  0.0093  0.0064 -0.6003
    1WF      WF69785  20.624  23.693   2.245  0.0721 -0.1680  0.0269
    1WF      WF69786  10.584   7.060   8.792 -0.0670 -0.1385 -0.2572
    1WF      WF69787  26.055  18.825   8.251 -0.2154 -0.0130 -0.2809
    1WF      WF69788   3.920  26.488   7.874  0.3504  0.1558  0.2312
    1WF      WF69789  27.106  23.031   0.272 -0.1441  0.3184  0.2268
    1WF      WF69790  23.706  17.601   6.514 -0.0914 -0.1205 -0.4175
    1WF      WF69791  27.997   5.258   1.372 -0.0005 -0.0877 -0.0719
    1WF      WF69792   4.969  15.844   0.887 -0.0586 -0.2058 -0.1236
    1WF      WF69793  18.215  13.816   8.294  0.1476 -0.1588 -0.2172
    1WF      WF69794  13.802  18.169   6.779  0.2645  0.0905  0.0177
    1WF      WF69795  29.301  22.397   9.054  0.1426  0.0132  0.0846
    1WF      WF69796  20.336  10.150   7.897  0.2481 -0.0631  0.0572
    1WF      WF69797   3.369   4.755   0.577 -0.1088 -0.2162 -0.1320
    1WF      WF69798  23.557  26.371   1.816 -0.0992  0.0092 -0.2771
    1WF      WF69799   0.895  18.695   8.102 -0.2008 -0.0453  0.1212
    1WF      WF69800  27.593  28.211   8.730 -0.2387  0.0583  0.1725
    1WF      WF69801  26.080   9.938   2.676 -0.0257  0.1851  0.2826
    1WF      WF69802  14.212  14.158   1.559 -0.1647  0.1111  0.3899
    1WF      WF69803  22.518  24.101   1.013 -0.1321 -0.1070  0.0328
    1WF      WF69804  11.471  14.535   8.821  0.0375 -0.1824  0.0263
    1WF      WF69805   2.292  23.161   0.216 -0.2262 -0.1619  0.0956
    1WF      WF69806   3.414  24.831   3.060  0.2896 -0.0524  0.1799
    1WF      WF69807  20.863  18.344   1.086  0.0997 -0.0155  0.2000
    1WF      WF69808  17.784  20.708   9.249  0.0278 -0.0678 -0.0620
    1WF      WF69809   0.091  15.043   8.946  0.1670  0.2291  0.3067
    1WF      WF69810  22.629  15.719   7.225 -0.4287  0.3606 -0.2075
    1WF      WF69811  13.627   3.243   0.300 -0.3514 -0.0843 -0.1746
    1WF      WF69812  13.603   6.034   7.796  0.2743  0.0526  0.0233
    1WF      WF69813   1.425   1.696   3.275  0.1612 -0.2585  0.2279
    1WF      WF69814  21.226   9.014   7.978  0.1132 -0.0117  0.2380
    1WF      WF69815  21.540   1.246   8.594  0.0531  0.1143 -0.0256
    1WF      WF69816   2.527  15.866   0.279  0.2010  0.0676  0.1030
    1WF      WF69817  11.933  21.838   7.407 -0.1748  0.2134  0.0895
    1WF      WF69818  28.160  22.658   7.551 -0.0133 -0.2495 -0.1411
    1WF      WF69819  26.523   4.767   2.495  0.0358  0.2422  0.2341
    1WF      WF69820  16.886   5.193   0.417  0.1015 -0.0555  0.1880
    1WF      WF69821  10.850  20.545   7.482 -0.0356  0.3389  0.4043
    1WF      WF69822   7.932   1.431   0.508  0.1683  0.0320  0.1421
    1WF      WF69823  13.917  27.569   8.037  0.0316 -0.1052  0.3947
    1WF      WF69824   8.105   7.324   1.059 -0.0528 -0.0020  0.0251
    1WF      WF69825  12.237  29.890   8.735  0.0106  0.3574 -0.1547
    1WF      WF69826  16.684  13.371   0.996  0.1133  0.1425 -0.2743
    1WF      WF69827  15.917   1.931   0.472  0.2044  0.0023  0.0632
    1WF      WF69828  30.002  18.317   7.385 -0.2019 -0.0558 -0.1775
    1WF      WF69829   1.646  29.916   3.186 -0.0392  0.2724  0.0603
    1WF      WF69830  10.719  22.225   1.742  0.0468  0.3771  0.2500
    1WF      WF69831   3.803  19.775   9.217 -0.0643 -0.0774  0.0776
    1WF      WF69832  10.557   1.765   8.079 -0.3062  0.5434  0.3631
    1WF      WF69833  29.938  23.973   8.052 -0.2355 -0.2663 -0.1642
    1WF      WF69834  21.741  15.593   6.888 -0.4796  0.0278 -0.4003
    1WF      WF69835  20.366  16.153   2.324 -0.1487 -0.2245  0.3635
    1WF      WF69836  29.778   1.278   8.800  0.0270  0.2952  0.2959
    1WF      WF69837   0.038  16.891   8.596 -0.3292 -0.2963  0.1680
    1WF      WF69838  22.728  25.247   8.056 -0.0498 -0.1568  0.0538
    1WF      WF69839  10.979  16.483   1.787  0.4305 -0.0202 -0.0803
    1WF      WF69840  22.270   1.104   0.805 -0.1283  0.1166 -0.2944
    1WF      WF69841  19.709   3.304   1.994  0.2560  0.2187 -0.1451
    1WF      WF69842  24.430   1.373   7.894  0.0975 -0.2618  0.0270
    1WF      WF69843   7.489  10.098   9.229 -0.1507 -0.0778  0.1228
    1WF      WF69844  27.219   5.275   2.746  0.1701  0.1019  0.4255
    1WF      WF69845  28.465   5.446   1.623  0.0634  0.1856  0.1075
    1WF      WF69846  18.495  22.931   0.856  0.2422 -0.1073  0.0812
    1WF      WF69847  13.907  28.711   7.223 -0.1050 -0.3023  0.1197
    1WF      WF69848   4.566  24.563   0.240  0.0230 -0.0850  0.0831
    1WF      WF69849  17.310  24.526   8.955 -0.1416 -0.2251 -0.0162
    1WF      WF69850  16.360  11.935   7.298 -0.0580 -0.1323  0.0478
    1WF      WF69851  25.424  27.946   1.304  0.1385  0.1309  0.2735
    1WF      WF69852  23.551  28.061   6.258 -0.0992  0.0135  0.1195
    1WF      WF69853  15.195  15.133   1.312  0.0386 -0.2259  0.2149
    1WF      WF69854  26.026  29.722   2.323 -0.0407 -0.1834 -0.3750
    1WF      WF69855   2.169   5.874   1.604  0.2182  0.0083  0.0240
    1WF      WF69856   6.336  30.046   7.692 -0.1319 -0.0518  0.2254
    1WF      WF69857  28.668  11.872   9.254  0.0931 -0.0380  0.1964
    1WF      WF69858  28.349   5.452   0.132 -0.0952  0.0322 -0.0598
    1WF      WF69859   1.736  14.171   8.445  0.3418 -0.1229  0.0542
    1WF      WF69860  23.837  13.383   0.071 -0.0930 -0.0613  0.1836
    1WF      WF69861  10.727   2.792   7.665 -0.1628 -0.1533 -0.2551
    1WF      WF69862   9.404   6.708   8.050 -0.1948 -0.0020  0.0395
    1WF      WF69863  10.950   3.785   8.661  0.3117 -0.0366  0.1141
    1WF      WF69864   4.319   9.317   0.991 -0.1112  0.1128 -0.2977
    1WF      WF69865  14.845  19.009   1.677  0.2097  0.1496  0.0197
    1WF      WF69866  29.637   0.587   0.669  0.2832 -0.0594 -0.2158
    1WF      WF69867  17.752   7.238   0.695  0.0636 -0.0227 -0.4202
    1WF      WF69868  19.997  25.335   8.202 -0.1322 -0.1394  0.1954
    1WF      WF69869  29.985   0.653   1.053  0.0213 -0.1169  0.1942
    1WF      WF69870  26.773   0.796   2.664  0.0998  0.2295 -0.1768
    1WF      WF69871  20.565  25.955   1.661  0.1410  0.0418 -0.0465
    1WF      WF69872  16.824  29.935   3.188 -0.2189  0.2775 -0.1018
    1WF      WF69873  20.138  26.767   6.323  0.0940  0.2774  0.0312
    1WF      WF69874  18.881  21.612   0.369 -0.1356  0.1102 -0.0549
    1WF      WF69875  17.342  16.313   7.125  0.1164  0.0262  0.1334
    1WF      WF69876  24.130  28.626   1.273 -0.1714  0.0050  0.1768
    1WF      WF69877  13.259  29.466   9.267 -0.3184  0.0222 -0.1500
    1WF      WF69878   5.280   5.067   6.922  0.1356  0.1638 -0.0653
    1WF      WF69879  12.344  16.179   0.810  0.3615  0.1092 -0.1600
    1WF      WF69880  29.865  17.246   0.093 -0.0581 -0.0878 -0.0458
    1WF      WF69881  10.800  27.332   0.392  0.3532  0.2561  0.1135
    1WF      WF69882   7.836  28.899   1.470 -0.1341 -0.1764  0.0595
    1WF      WF69883  13.900   6.775   1.462 -0.0298 -0.0817  0.1536
    1WF      WF69884  20.560   0.076   8.410  0.1052  0.0911  0.0170
    1WF      WF69885  11.453  16.895   8.480  0.1009  0.0075  0.1613
    1WF      WF69886   2.620   6.124   0.814  0.1678  0.0096  0.0650
    1WF      WF69887  11.348   6.394   8.539 -0.1542  0.1752 -0.2382
    1WF      WF69888  21.728  18.000   7.106  0.0004 -0.2333  0.1079
    1WF      WF69889  20.833  27.426   6.339 -0.0232 -0.1782  0.1967
    1WF      WF69890   1.777   0.602   1.788 -0.4185 -0.0102 -0.2918
    1WF      WF69891  19.240   0.381   7.269 -0.0462  0.0527 -0.1703
    1WF      WF69892  24.532   7.167   0.944 -0.0306  0.3244 -0.0439
    1WF      WF69893   8.687  13.690   0.625 -0.0090 -0.1280  0.1220
    1WF      WF69894  22.200  22.880   7.533 -0.2067  0.1664 -0.1038
    1WF      WF69895  20.324   0.520   0.231  0.3419 -0.1705 -0.1909
    1WF      WF69896  17.277  29.269   1.170  0.2527 -0.0262  0.0459
    1WF      WF69897   2.061   8.515   1.317  0.3061 -0.1766  0.0409
    1WF      WF69898  14.023  20.307   0.062  0.1250 -0.0165  0.0037
    1WF      WF69899   5.624   6.319   8.561  0.1671  0.1956 -0.5250
    1WF      WF69900  12.281  16.209   1.294 -0.0663  0.3851  0.1891
    1WF      WF69901   5.978   6.305   2.266  0.1538 -0.3484 -0.0776
    1WF      WF69902  16.780   3.160   1.520 -0.0425  0.1204 -0.2390
    1WF      WF69903  11.874  22.965   7.432  0.2917 -0.0596  0.0266
    1WF      WF69904  21.114   8.076   6.682 -0.0953 -0.0383  0.0648
    1WF      WF69905  16.209  11.057   8.246  0.0855 -0.2361 -0.3912
    1WF      WF69906   3.576  13.252   1.459  0.3329 -0.0835 -0.2205
    1WF      WF69907  22.294   7.067   1.272  0.0342  0.0338 -0.3023
    1WF      WF69908  27.828  21.293   7.541 -0.1591  0.0783 -0.2349
    1WF      WF69909  22.944   4.580   2.323  0.3653  0.0923  0.2248
    1WF      WF69910  25.664  12.406   0.795 -0.1585 -0.0267  0.3705
    1WF      WF69911  20.582  12.109   8.129 -0.0137 -0.3271 -0.0073
    1WF      WF69912  29.223  24.315   1.493 -0.1294 -0.2380  0.1126
    1WF      WF69913  26.793  18.068   8.080 -0.1248 -0.2449  0.0173
    1WF      WF69914  20.797  24.775   0.318  0.1263  0.4063  0.1114
    1WF      WF69915  21.990   2.900   7.959  0.2393 -0.3022 -0.0172
    1WF      WF69916  24.036  16.701   0.931 -0.1545  0.1904 -0.1803
    1WF      WF69917  22.281  11.108   9.054 -0.1483  0.0593 -0.1801
    1WF      WF69918  16.134   9.901   0.210 -0.0281 -0.5071 -0.2541
    1WF      WF69919   6.475   9.242   7.643  0.0060  0.0352 -0.0877
    1WF      WF69920  25.809   3.546   8.918 -0.1328  0.0268  0.0522
    1WF      WF69921   3.750   4.535   0.266 -0.2981  0.1452 -0.1151
    1WF      WF69922   6.854  15.892   0.594 -0.2521  0.1064  0.0001
    1WF      WF69923  23.149  16.791   7.782  0.0572  0.3774 -0.0563
    1WF      WF69924  28.929  19.776   0.862 -0.0267 -0.1839  0.0732
    1WF      WF69925  17.033   7.728   7.099 -0.0570 -0.2689  0.2826
    1WF      WF69926  20.297  25.219   8.629  0.0674 -0.0964 -0.1685
    1WF      WF69927   0.376  30.330   1.318 -0.0185 -0.0530 -0.0984
    1WF      WF69928   0.845  30.192   1.172  0.1646 -0.3112  0.2390
    1WF      WF69929   4.752  24.997   0.489  0.3880 -0.0259 -0.0951
    1WF      WF69930   3.980  16.915   9.263 -0.2849  0.1180  0.1534
    1WF      WF69931  15.413  17.001   0.850 -0.1190 -0.2283 -0.3794
    1WF      WF69932  29.963  15.928   7.975 -0.0770 -0.3389 -0.3200
    1WF      WF69933  21.609   8.128   0.714  0.0412 -0.2033 -0.0112
    1WF      WF69934  20.917  23.943   8.047  0.2237 -0.0190  0.2351
    1WF      WF69935  20.712  15.753   2.393  0.4262 -0.0085 -0.3504
    1WF      WF69936  26.494   1.482   2.414  0.2931 -0.2507 -0.1474
    1WF      WF69937  18.432  26.884   0.727 -0.1603 -0.1244  0.1855
    1WF      WF69938  26.989  17.422   0.473 -0.4065 -0.0769 -0.1103
    1WF      WF69939   5.582  18.470   8.471 -0.3300 -0.1091 -0.4118
    1WF      WF69940  29.576  19.503   8.634 -0.0647 -0.0238 -0.0149
    1WF      WF69941   7.151   5.426   7.754 -0.2039 -0.1057  0.0332
    1WF      WF69942  23.181   7.459   0.506 -0.1414 -0.0793 -0.0893
    1WF      WF69943  27.144  29.259   2.916  0.1134 -0.0581  0.3788
    1WF      WF69944   0.961   5.018   0.607 -0.0026  0.0641  0.0589
    1WF      WF69945  10.260  20.334   0.647 -0.0099  0.2465 -0.1646
    1WF      WF69946  18.138  27.784   8.618 -0.0968  0.1890  0.0204
    1WF      WF69947  12.909  16.104   3.351  0.0900  0.0484  0.1944
    1WF      WF69948  22.498   6.869   8.829 -0.1625  0.3092 -0.0992
    1WF      WF69949   1.518  20.168   0.210  0.1379 -0.2789 -0.0120
    1WF      WF69950  28.721  10.069   0.135 -0.0289 -0.1889  0.4850
    1WF      WF69951  24.704  27.688   8.762 -0.0467 -0.1886  0.3929
    1WF      WF69952  24.323  12.018   9.198  0.0369 -0.1104  0.2929
    1WF      WF69953  29.294   4.012   9.124 -0.1112 -0.1558 -0.1900
    1WF      WF69954  29.546  16.533   8.114 -0.0911  0.1846  0.2464
    1WF      WF69955   2.219   0.910   8.936 -0.1849 -0.1982 -0.0265
    1WF      WF69956  14.839  23.249   7.031 -0.0734  0.1329  0.1552
    1WF      WF69957  17.839   0.847   1.033 -0.0596 -0.2244 -0.0865
    1WF      WF69958  20.842   4.538   0.852  0.0311 -0.1145 -0.0245
    1WF      WF69959  21.372  26.224   9.062  0.1172  0.2882 -0.0063
    1WF      WF69960   3.086  23.605   8.886  0.2851  0.0275 -0.2278
    1WF      WF69961  25.275   3.485   8.948  0.0355 -0.0848  0.0697
    1WF      WF69962   5.446  10.630   7.493  0.1429  0.1563  0.0850
    1WF      WF69963  20.692   6.106   0.704 -0.1282 -0.1113  0.1342
    1WF      WF69964   6.795  27.931   1.995 -0.0069  0.0951 -0.2564
    1WF      WF69965  12.339  25.221   9.183  0.3614  0.1968  0.1636
    1WF      WF69966  16.981  10.879   1.327 -0.1605  0.4634  0.0192
    1WF      WF69967   1.333   0.052   0.090  0.0504  0.1771 -0.1144
    1WF      WF69968   4.475  11.439   0.738  0.0726  0.0858  0.0183
    1WF      WF69969  23.147  10.562   7.811  0.0339 -0.2605 -0.0147
    1WF      WF69970  25.914  11.504   8.442  0.3611 -0.2338 -0.0941
    1WF      WF69971  30.108  24.626   2.659 -0.2859 -0.0836 -0.1335
    1WF      WF69972  13.418  16.435   6.732 -0.1245 -0.4639  0.4231
    1WF      WF69973   0.738  30.006   7.632 -0.2829 -0.1108 -0.0151
    1WF      WF69974   0.061   6.902   2.173 -0.2209  0.3841 -0.1079
    1WF      WF69975  19.380  30.333   2.751  0.1340  0.2691 -0.2026
    1WF      WF69976   7.569  21.519   0.063  0.0694  0.1251 -0.0046
    1WF      WF69977  11.418   8.574   0.303 -0.1759  0.2029 -0.1904
    1WF      WF69978  28.537   3.684   0.864  0.6153  0.2488 -0.0122
    1WF      WF69979  23.452  23.682   8.603 -0.0886  0.0365  0.1838
    1WF      WF69980  23.781  11.012   7.725 -0.2002 -0.1344  0.1708
    1WF      WF69981   9.050  16.064   9.256  0.0741 -0.0980 -0.0430
    1WF      WF69982  26.323   8.131   8.116 -0.0918 -0.1734  0.1165
    1WF      WF69983   3.975  13.528   1.328 -0.0668 -0.0626 -0.0143
    1WF      WF69984  19.938  23.545   5.872 -0.0748 -0.1152 -0.0318
    1WF      WF69985   6.536   9.714   1.229  0.0110 -0.1380 -0.1014
    1WF      WF69986  13.885  23.692   1.755  0.1314  0.2558  0.1244
    1WF      WF69987  28.979  29.458   8.628 -0.2645  0.4792 -0.0854
    1WF      WF69988  23.772  22.276   7.986  0.1090  0.4026 -0.3212
    1WF      WF69989  15.172   5.464   8.865 -0.0533  0.0517 -0.0689
    1WF      WF69990  27.102   2.029   2.984  0.0126 -0.3561 -0.0905
    1WF      WF69991  15.368  12.896   2.024 -0.2199 -0.1508 -0.2749
    1WF      WF69992   8.997  30.165   6.979  0.0826 -0.1660 -0.4186
    1WF      WF69993  20.588  13.985   1.331 -0.0630 -0.3639  0.1346
    1WF      WF69994   7.248  18.150   7.421 -0.0868  0.1703  0.2513
    1WF      WF69995  20.825  20.284   8.220  0.2943  0.3108  0.0718
    1WF      WF69996  19.357  27.188   8.662  0.2258 -0.0502  0.0274
    1WF      WF69997  27.722  15.970   7.716  0.1422 -0.1323  0.1167
    1WF      WF69998  30.004  16.591   8.217  0.1834  0.0556  0.2702
    1WF      WF69999  18.339  10.848   0.544 -0.0278  0.2624 -0.1847
    1WF      WF70000  26.953   4.087   8.275 -0.0078  0.0842  0.1222
    1WF      WF70001  22.044  19.105   1.015  0.3564  0.0769 -0.0882
    1WF      WF70002  26.156   3.492   1.228  0.1853 -0.0935  0.1089
    1WF      WF70003  15.482  16.241   7.558  0.0052 -0.1513  0.1573
    1WF      WF70004  11.949  25.342   7.644  0.3404  0.0172 -0.1456
    1WF      WF70005   5.449  25.135   2.648 -0.0021  0.0432  0.1180
    1WF      WF70006   8.346  15.718   1.626  0.1287  0.0114 -0.0615
    1WF      WF70007   2.448   0.366   1.141 -0.0489  0.0142  0.0415
    1WF      WF70008  10.330  12.839   1.238 -0.0622  0.0255 -0.1109
    1WF      WF70009   3.475   7.755   6.522  0.0539  0.0474 -0.0858
    1WF      WF70010  15.624  25.653   0.018 -0.0350  0.2271 -0.1638
    1WF      WF70011   5.026  24.570   0.502 -0.0152 -0.2437 -0.1596
    1WF      WF70012  23.293  19.206   0.827 -0.3274 -0.0709  0.0695
    1WF      WF70013   6.768   7.882   0.086 -0.1655  0.3947  0.0891
    1WF      WF70014  25.011  15.702   8.015 -0.0718 -0.0952  0.0609
    1WF      WF70015  26.066   3.901   2.419 -0.2491  0.3157  0.0555
    1WF      WF70016   4.890   3.657   9.219  0.0089 -0.1701 -0.2194
    1WF      WF70017   7.696  10.260   0.414 -0.1230 -0.1267  0.2422
    1WF      WF70018   6.722  13.558   8.491  0.0097  0.1485  0.0099
    1WF      WF70019  13.930   9.812   0.624  0.2692  0.0633  0.1737
    1WF      WF70020  19.698  16.938   7.972 -0.3287  0.0190  0.2781
    1WF      WF70021   5.529   2.461   0.423  0.1583  0.1460 -0.0357
    1WF      WF70022  12.616  19.484   5.826  0.2770 -0.2891 -0.2730
    1WF      WF70023  10.675  21.082   6.041 -0.1221  0.0473 -0.5357
    1WF      WF70024   1.792  19.943   0.581 -0.0132  0.2426 -0.0677
    1WF      WF70025  10.991  24.438   8.181 -0.3203  0.0012  0.1574
    1WF      WF70026   8.595  13.682   0.000  0.1994 -0.0485 -0.0585
    1WF      WF70027  21.662  19.474   6.746 -0.1409  0.2921 -0.0803
    1WF      WF70028   0.005   9.220   8.576  0.1632  0.0025 -0.0901
    1WF      WF70029  14.940  21.289   7.742 -0.0780  0.5298 -0.1471
    1WF      WF70030   0.082  12.179   8.322 -0.0439 -0.1999 -0.0481
    1WF      WF70031   5.439  29.676   8.334 -0.1229 -0.2065 -0.1725
    1WF      WF70032   4.624  21.591   9.195 -0.0181 -0.3748 -0.1504
    1WF      WF70033  25.587   1.104   0.329  0.1369  0.0462  0.1479
    1WF      WF70034  16.689  10.428   0.847  0.0353 -0.0077 -0.2672
    1WF      WF70035   8.217  22.071   6.596 -0.1880  0.2380  0.2929
    1WF      WF70036  18.864   8.284   8.489  0.1501  0.2233 -0.0923
    1WF      WF70037  12.523  29.542   1.993 -0.0003  0.0351 -0.1290
    1WF      WF70038  24.610   9.472   7.105  0.0196  0.5702 -0.1288
    1WF      WF70039   9.262   0.244   1.912  0.0248 -0.0478  0.1317
    1WF      WF70040  11.144  19.058   6.285  0.0259  0.2163  0.0395
    1WF      WF70041   5.696  29.216   8.346 -0.2307  0.0290  0.0872
    1WF      WF70042   4.158   9.133   1.428  0.2869 -0.1633  0.1755
    1WF      WF70043  16.961  24.367   7.573  0.0490  0.0708 -0.0550
    1WF      WF70044   5.125  11.323   0.144 -0.0157 -0.2030  0.0811
    1WF      WF70045   1.432   8.087   8.626 -0.0072  0.2025 -0.0416
    1WF      WF70046  19.544  19.692   9.062  0.0401 -0.1326 -0.3166
    1WF      WF70047  23.553  12.924   7.682 -0.3817 -0.1129 -0.0123
    1WF      WF70048   0.723   2.085   3.889  0.1653  0.1279  0.2522
    1WF      WF70049  19.196   3.369   2.153  0.3387  0.1846 -0.2465
    1WF      WF70050   4.368   4.686   0.191  0.0658 -0.0996  0.0607
    1WF      WF70051  28.271   2.233   2.013  0.0402 -0.0063  0.2484
    1WF      WF70052  26.070  23.632   7.831 -0.0181  0.0327  0.3401
    1WF      WF70053   2.540  18.758   7.337  0.0383  0.3888 -0.2289
    1WF      WF70054   1.140   0.314   8.954 -0.0424 -0.1463  0.0312
    1WF      WF70055   7.127   5.269   3.730  0.0417 -0.0056 -0.1850
    1WF      WF70056  25.104  16.103   1.289  0.0219 -0.1271  0.0563
    1WF      WF70057  11.181   3.266   8.663 -0.1240 -0.0278 -0.3864
    1WF      WF70058  25.910  27.109   8.450 -0.0811 -0.1606 -0.2952
    1WF      WF70059  27.005  27.968   2.653 -0.1026  0.1462  0.1004
    1WF      WF70060   4.384  22.009   5.974  0.0563  0.0909 -0.1505
    1WF      WF70061  25.863  21.058   0.605 -0.0137 -0.0274 -0.1134
    1WF      WF70062  11.896   5.953   6.981  0.0265  0.1670 -0.1685
    1WF      WF70063  23.329   9.682   0.949 -0.2941 -0.3466  0.1334
    1WF      WF70064  22.285   7.303   8.969  0.1070 -0.1214  0.2824
    1WF      WF70065  24.416  21.235   7.766 -0.5161  0.1139  0.0680
    1WF      WF70066  16.632   6.462   9.103 -0.0585  0.1483 -0.0387
    1WF      WF70067  20.492  11.963   8.676 -0.3098  0.0565 -0.0797
    1WF      WF70068  22.881  14.123   0.532  0.0693  0.0724 -0.2530
    1WF      WF70069  16.011  28.709   0.274 -0.1141 -0.1905 -0.2133
    1WF      WF70070  17.500  26.908   1.018 -0.3204  0.1235 -0.0146
    1WF      WF70071  19.673  13.377   8.252 -0.3571 -0.0325 -0.1632
    1WF      WF70072   3.421   3.763   7.010  0.0700  0.1089 -0.0525
    1WF      WF70073  25.043  21.201   7.927  0.1619  0.3634  0.1224
    1WF      WF70074  20.532  26.093   0.751  0.0497 -0.1282  0.0397
    1WF      WF70075  23.536  10.122   0.731  0.0333  0.1270 -0.3843
    1WF      WF70076   3.820   5.504   1.155 -0.0063 -0.3959  0.0014
    1WF      WF70077  10.905  11.842   8.339 -0.1286  0.0600 -0.1038
    1WF      WF70078  16.426  10.665   8.979 -0.3592  0.3060 -0.1849
    1WF      WF70079  22.865  10.469   0.170  0.0343 -0.0123  0.1431
    1WF      WF70080   2.846  18.005   6.007  0.0781 -0.1204 -0.0803
    1WF      WF70081  10.277  19.825   0.659  0.4336  0.2465  0.3926
    1WF      WF70082   3.475  29.671   0.260  0.0457 -0.1233  0.4197
    1WF      WF70083   9.138  13.020   8.479  0.0750  0.2069  0.1795
    1WF      WF70084   8.617  15.938   1.215  0.0385  0.3571 -0.1023
    1WF      WF70085  17.116   6.459   9.203  0.1991  0.0273  0.0843
    1WF      WF70086  23.441  16.936   0.840 -0.0123 -0.1378 -0.0112
    1WF      WF70087  29.495  26.877   3.027 -0.1684 -0.0060 -0.0704
    1WF      WF70088  21.255  15.375   7.356 -0.1530 -0.0214 -0.0531
    1WF      WF70089  13.506   5.092   1.496  0.0032 -0.0231  0.0461
    1WF      WF70090  28.661  29.803   8.499  0.0323  0.2715  0.1081
    1WF      WF70091   8.303  12.092   0.574 -0.0563  0.0730  0.0069
    1WF      WF70092  13.811  12.754   1.448  0.0205  0.1229  0.2400
    1WF      WF70093  10.737   2.428   8.753 -0.0897 -0.0658  0.1061
    1WF      WF70094   2.917   8.037   7.639  0.1240  0.0657 -0.0378
    1WF      WF70095  13.214  22.927   1.106 -0.0785 -0.1928  0.1199
    1WF      WF70096  14.770   5.061   0.179  0.0079 -0.1226 -0.0136
    1WF      WF70097  17.154  12.563   8.475  0.0720  0.3070  0.0686
    1WF      WF70098   8.580   1.844   7.973  0.0319 -0.1251  0.3262
    1WF      WF70099   8.383  18.872   8.149  0.0540  0.1712 -0.1354
    1WF      WF70100  23.825  10.951   2.155  0.0164 -0.1258 -0.0659
    1WF      WF70101  13.275  25.675   1.310  0.0454 -0.0605 -0.0134
    1WF      WF70102  26.675   2.131   2.788  0.0012 -0.0408 -0.1421
    1WF      WF70103   4.190  16.794   8.070  0.0860 -0.2408  0.1677
    1WF      WF70104  25.007   6.524   1.628 -0.0380 -0.0706  0.2258
    1WF      WF70105  16.503  13.705   1.452  0.2304  0.0071 -0.2505
    1WF      WF70106   7.033   1.876   2.003 -0.0073 -0.0026 -0.0794
    1WF      WF70107   5.639  19.226   7.401 -0.2439  0.1708 -0.2349
    1WF      WF70108   9.684  19.411   0.910  0.1517  0.0834 -0.0765
    1WF      WF70109  11.460  29.167   0.149  0.0644  0.3434 -0.2614
    1WF      WF70110  11.331   5.943   8.285 -0.0941 -0.2037 -0.0025
    1WF      WF70111  27.355   0.955   0.821  0.1226  0.1377  0.1514
    1WF      WF70112  25.796   9.993   7.632 -0.0303  0.0309 -0.0921
    1WF      WF70113   0.296  26.822   1.876  0.0964  0.0082 -0.3174
    1WF      WF70114  19.352  27.776   1.223 -0.1804 -0.1715  0.0597
    1WF      WF70115  28.621  23.738   0.364 -0.0793 -0.0258 -0.0815
    1WF      WF70116   3.494   8.156   1.093  0.3718  0.2315  0.2207
    1WF      WF70117  16.818  14.088   0.524  0.1600  0.2369 -0.1539
    1WF      WF70118  23.113  27.539   8.431 -0.0037  0.0788 -0.1489
    1WF      WF70119  28.167  26.132   2.409 -0.0120  0.0266 -0.1209
    1WF      WF70120  15.572   8.120   8.282 -0.2763 -0.2985  0.3089
    1WF      WF70121   8.178   9.751   8.284 -0.1423 -0.1036  0.2043
    1WF      WF70122   2.272  16.794   6.176 -0.2441  0.0481  0.1328
    1WF      WF70123  10.605  11.521   8.685  0.1174  0.1204 -0.1122
    1WF      WF70124   7.602  28.758   6.710  0.2867 -0.0404  0.1607
    1WF      WF70125  10.531   2.068   8.468 -0.1210  0.0545 -0.2344
    1WF      WF70126   5.555  22.025   1.918  0.2101  0.0303  0.2857
    1WF      WF70127   6.983   2.956   7.118 -0.3246 -0.3671 -0.0443
    1WF      WF70128  13.971  28.058   1.908  0.0951  0.0163 -0.0997
    1WF      WF70129  15.108  22.829   8.539  0.1935  0.1880 -0.2056
    1WF      WF70130  10.568  21.064   7.615 -0.2441 -0.0733  0.1073
    1WF      WF70131  14.829  18.263   7.959  0.2866  0.4470  0.1350
    1WF      WF70132  12.110   4.389   0.753 -0.2788 -0.3013 -0.0138
    1WF      WF70133   1.294  11.110   0.830  0.3867  0.2853  0.0229
    1WF      WF70134  26.089   4.405   1.973  0.0206 -0.1229 -0.0935
    1WF      WF70135   6.068  21.497   6.911  0.1155  0.2618  0.4236
    1WF      WF70136  21.216  20.931   9.042 -0.2472 -0.0259  0.1332
    1WF      WF70137  18.197  29.770   1.350  0.0279  0.0060 -0.1225
    1WF      WF70138  10.566  13.245   7.257  0.3245  0.2050  0.3193
    1WF      WF70139  24.753   5.747   8.669 -0.2294  0.0903  0.1474
    1WF      WF70140   6.957   3.527   0.466 -0.1889 -0.0143 -0.1756
    1WF      WF70141   7.120  25.359   0.170  0.0795 -0.0288  0.0156
    1WF      WF70142  17.627  21.043   1.027  0.3680 -0.0833  0.3770
    1WF      WF70143  28.345  17.446   7.769 -0.0015 -0.0520 -0.2694
    1WF      WF70144  19.918  25.073   0.522 -0.2650 -0.4650  0.0817
    1WF      WF70145  11.911   3.756   6.942  0.0855  0.1601  0.0336
    1WF      WF70146  15.409  19.772   9.117  0.0758  0.0214  0.0737
    1WF      WF70147   4.358  13.495   8.229 -0.1492 -0.2472 -0.1468
    1WF      WF70148  24.503  23.626   0.741  0.0609  0.3629  0.2259
    1WF      WF70149   5.438  11.541   2.549  0.1560 -0.0821  0.0799
    1WF      WF70150  22.363  12.258   6.835 -0.1033  0.0411 -0.1219
    1WF      WF70151  24.820  12.255   9.021  0.0325 -0.2309 -0.0265
    1WF      WF70152   5.708  16.638   7.280 -0.0189 -0.1786 -0.0725
    1WF      WF70153   1.913   3.592   1.634 -0.2279  0.3786 -0.3981
    1WF      WF70154  12.538   7.526   8.724  0.2113 -0.1529  0.0473
    1WF      WF70155   7.085   1.039   8.034  0.0208 -0.0294  0.2318
    1WF      WF70156  10.819  20.973   2.260  0.1320  0.1177 -0.0670
    1WF      WF70157  14.077  20.805   0.036  0.0181 -0.2380 -0.0423
    1WF      WF70158  17.264  21.277   1.258 -0.1793  0.0567 -0.2331
    1WF      WF70159   1.718  18.890   1.536 -0.0648 -0.2103  0.1484
    1WF      WF70160  11.532  12.809   7.001  0.1972  0.0871  0.0956
    1WF      WF70161   8.355  25.819   8.464  0.0799  0.1558 -0.3871
    1WF      WF70162  29.142   7.939   1.834 -0.2883 -0.2704 -0.1615
    1WF      WF70163  27.837  30.179   1.375  0.1055 -0.2445 -0.1762
    1WF      WF70164  14.226  23.489   8.209 -0.0294 -0.0938  0.0744
    1WF      WF70165  21.449  15.437   6.497  0.1306 -0.2004  0.1039
    1WF      WF70166  20.722  11.016   8.940 -0.2087 -0.0901 -0.3412
    1WF      WF70167  18.832   3.736   2.008 -0.2729 -0.0105 -0.0296
    1WF      WF70168  23.442  27.651   0.877 -0.0414 -0.1954 -0.2843
    1WF      WF70169  24.633   7.928   7.873 -0.0345 -0.1330  0.0593
    1WF      WF70170   0.896  27.501   7.419  0.4571 -0.0376 -0.2266
    1WF      WF70171  16.051   9.882   6.272  0.0054 -0.1885 -0.0799
    1WF      WF70172  11.636  20.151   8.420 -0.1152 -0.3364  0.0634
    1WF      WF70173  13.888  25.424   8.996  0.1247  0.0621 -0.2275
    1WF      WF70174  19.168  28.076   0.831 -0.1089  0.1642 -0.2312
    1WF      WF70175  13.268   4.117   8.817 -0.3037 -0.0727 -0.0554
    1WF      WF70176  22.942  23.782   2.707 -0.1863  0.0310 -0.0460
    1WF      WF70177  17.329   2.601   7.420  0.2128 -0.2539  0.3288
    1WF      WF70178  20.447  12.553   8.370 -0.0569  0.0606 -0.1855
    1WF      WF70179  18.831   5.055   8.644  0.1547  0.0534 -0.2245
    1WF      WF70180  16.478  10.960   1.375 -0.3011  0.0550  0.0936
    1WF      WF70181   7.790   4.344   0.327 -0.2306 -0.1588  0.4251
    1WF      WF70182  29.365  29.271   2.247  0.3904 -0.1374  0.2608
    1WF      WF70183  12.020  19.667   6.953 -0.1745 -0.1128  0.1083
    1WF      WF70184  10.913  15.769   9.031  0.0545 -0.2605 -0.0609
    1WF      WF70185   0.548  28.135   8.901 -0.0450 -0.2640  0.1279
    1WF      WF70186  30.159  19.393   7.924  0.0416 -0.4897  0.0479
    1WF      WF70187  14.389  14.259   8.309  0.0920  0.1971  0.0378
    1WF      WF70188  30.350  21.550   2.213 -0.2158  0.3966 -0.0671
    1WF      WF70189   8.281  25.355   8.585  0.2929  0.4363  0.1419
    1WF      WF70190  12.982  16.791   8.865 -0.0361  0.2426  0.1911
    1WF      WF70191   5.369  16.307   7.075 -0.2935  0.1796  0.0736
    1WF      WF70192   2.106  18.903   8.150 -0.0347  0.0172  0.2054
    1WF      WF70193   6.666  12.666   6.956  0.0860  0.1326  0.2509
    1WF      WF70194  14.211  29.756   1.690 -0.1582 -0.1497  0.4332
    1WF      WF70195  23.721  15.558   8.830  0.1362 -0.0799  0.2054
    1WF      WF70196  13.843  27.967   1.436 -0.1160  0.2171  0.0980
    1WF      WF70197  13.853   5.245   8.070  0.1918  0.2429  0.1466
    1WF      WF70198  19.125   6.115   0.847  0.1261 -0.0785 -0.4453
    1WF      WF70199  17.754  14.433   7.562  0.3207 -0.1928 -0.1607
    1WF      WF70200   3.356   2.217   0.693 -0.0118 -0.0892  0.0054
    1WF      WF70201  26.365  15.568   7.209  0.1568 -0.6008  0.3641
    1WF      WF70202  27.411  23.677   1.842 -0.0595  0.1483  0.1114
    1WF      WF70203  22.583   9.709   1.732 -0.1404  0.4045  0.0577
    1WF      WF70204   4.928   9.573   8.563  0.1387  0.3370  0.2347
    1WF      WF70205   1.424   5.390   0.729  0.0627 -0.0653 -0.2541
    1WF      WF70206   7.782   1.404   0.038  0.0671 -0.0459  0.1879
    1WF      WF70207   7.501  13.349   2.616 -0.0282 -0.0688  0.0637
    1WF      WF70208  20.799  17.835   1.018  0.0577 -0.1394  0.0891
    1WF      WF70209  29.194   0.405   0.576  0.0820 -0.0210 -0.0723
    1WF      WF70210  25.790  17.654   7.473  0.3330 -0.1444 -0.0416
    1WF      WF70211  14.259  28.389   7.392  0.1105  0.2593 -0.0198
    1WF      WF70212  27.846   7.277   0.304 -0.3068  0.0958  0.0056
    1WF      WF70213  14.059   7.560   7.634  0.0987 -0.0342 -0.1961
    1WF      WF70214  21.112  23.332   8.637 -0.0290  0.1043  0.1958
    1WF      WF70215  28.276  11.954   0.297  0.1357 -0.0049 -0.0884
    1WF      WF70216   2.854   0.860   0.259 -0.1250 -0.0009 -0.0167
    1WF      WF70217  11.617  27.271   2.659  0.1539  0.0359  0.0962
    1WF      WF70218  25.379  25.575   2.160 -0.2139  0.0395  0.1235
    1WF      WF70219   1.595  25.120   1.477  0.2804  0.2521 -0.1167
    1WF      WF70220  13.772  26.396   1.683  0.2450 -0.2094  0.0495
    1WF      WF70221  24.832  24.012   0.129 -0.0139 -0.0308 -0.1260
    1WF      WF70222   7.286  28.377   7.938 -0.2876 -0.0332 -0.1933
    1WF      WF70223   1.768  14.772   9.043 -0.0991  0.1632  0.0473
    1WF      WF70224  28.538  13.478   8.798  0.1233  0.1070 -0.1048
    1WF      WF70225  14.316  17.384   1.765  0.1647 -0.2603  0.1704
    1WF      WF70226   9.583  16.748   0.618  0.2337  0.1129  0.1403
    1WF      WF70227  14.376  27.987   1.307  0.1846  0.0629 -0.1436
    1WF      WF70228  24.970  10.077   0.175  0.1869 -0.0546 -0.0740
    1WF      WF70229  25.216   2.966   8.848  0.1521 -0.2399 -0.2037
    1WF      WF70230  12.376   3.480   0.651  0.1676 -0.1776 -0.0278
    1WF      WF70231   3.236  12.485   0.790 -0.2836  0.0128 -0.1528
    1WF      WF70232  25.846  28.079   1.520  0.2345 -0.0788 -0.0705
    1WF      WF70233   4.054   3.050   1.410  0.0763 -0.3631 -0.2112
    1WF      WF70234  18.312  29.657   0.882 -0.3747 -0.4425 -0.1397
    1WF      WF70235  20.631  25.941   1.191 -0.2410 -0.2629 -0.0263
    1WF      WF70236  11.136   2.930   1.196  0.1531 -0.0025 -0.1271
    1WF      WF70237  22.576  27.910   1.900  0.0027 -0.2932  0.0037
    1WF      WF70238  15.026  16.780   8.863  0.0280  0.1748 -0.0114
    1WF      WF70239  12.909  15.308   8.507 -0.0992 -0.0202 -0.0128
    1WF      WF70240  11.514  14.773   0.952 -0.4048  0.3421 -0.0393
    1WF      WF70241   8.933  12.000   0.353 -0.0217  0.0973 -0.0931
    1WF      WF70242  19.846  21.309   2.789  0.0844 -0.1966 -0.1995
    1WF      WF70243  10.363  19.358   0.492  0.0788  0.4656  0.0191
    1WF      WF70244  28.151  19.487   8.200  0.0535 -0.1715 -0.1542
    1WF      WF70245  20.522   0.040   0.309 -0.1826 -0.3076 -0.0264
    1WF      WF70246  14.792  21.443   0.565 -0.3329  0.5832  0.0786
    1WF      WF70247  21.314   6.224   1.375 -0.1923 -0.0975  0.0248
    1WF      WF70248  10.261  29.515   0.806 -0.0135 -0.1321  0.0648
    1WF      WF70249  22.737  10.615   0.659 -0.1698 -0.2569  0.0974
    1WF      WF70250  17.234   6.523   7.324  0.1224  0.1341  0.3517
    1WF      WF70251   4.346  21.596   8.736 -0.1877 -0.0110  0.1823
    1WF      WF70252  21.239  21.523   0.324  0.1238 -0.0854  0.0861
    1WF      WF70253  23.605   8.570   2.453  0.3007  0.0488 -0.2282
    1WF      WF70254  10.073  21.094   8.620  0.3164  0.1867  0.2141
    1WF      WF70255  25.884  29.927   1.848 -0.1324  0.1641 -0.0838
    1WF      WF70256  12.260   6.314   7.060 -0.0572  0.0448 -0.0682
    1WF      WF70257  20.094  23.679   2.256 -0.0651 -0.1072  0.1119
    1WF      WF70258   6.474  18.454   7.959 -0.0322  0.1314 -0.1418
    1WF      WF70259  10.985   3.795   0.704  0.1003  0.0399  0.0175
    1WF      WF70260  22.954  10.302   7.241 -0.1134  0.2182  0.0694
    1WF      WF70261  16.642  11.053   9.232  0.2192 -0.1060  0.1308
    1WF      WF70262  26.866   4.413   2.678  0.0296 -0.0060 -0.0994
    1WF      WF70263   1.053  13.730   0.588  0.0128  0.0372  0.2146
    1WF      WF70264   6.032   3.379   8.878  0.4368 -0.0974  0.3579
    1WF      WF70265  27.049   8.274   0.100  0.1622 -0.0745 -0.0987
    1WF      WF70266   6.777  18.230   7.609  0.2723 -0.1748  0.1068
    1WF      WF70267   6.013  26.000   8.468 -0.1325  0.0600  0.0380
    1WF      WF70268   9.003  10.818   1.541  0.0940 -0.2044 -0.1209
    1WF      WF70269   5.793  12.693   7.459  0.0992  0.0043  0.0827
    1WF      WF70270  17.139  16.349   8.549  0.2248  0.0894  0.0009
    1WF      WF70271  19.967   4.269   7.839 -0.1575  0.0080  0.0399
    1WF      WF70272   8.934  22.797   9.255  0.1575 -0.1047 -0.4325
    1WF      WF70273  21.464   0.205   8.217 -0.2773  0.0357 -0.0282
    1WF      WF70274  28.844   8.394   7.650 -0.0098 -0.0849  0.1097
    1WF      WF70275   0.247  13.206   9.043 -0.3027 -0.2766  0.0745
    1WF      WF70276  27.414   3.647   0.609  0.0774 -0.0132  0.2546
    1WF      WF70277  17.826  27.108   1.333 -0.0921 -0.1886  0.2285
    1WF      WF70278  22.376  13.156   9.048 -0.2822 -0.0402 -0.2019
    1WF      WF70279  16.595  24.899   0.083 -0.1000  0.0810 -0.0227
    1WF      WF70280  21.050   4.461   0.263 -0.2375 -0.0333  0.0139
    1WF      WF70281  13.649  27.209   8.211  0.0191 -0.2734  0.0296
    1WF      WF70282  25.361  12.312   6.996  0.0296  0.2364  0.3423
    1WF      WF70283   0.436   9.039   0.914 -0.2703 -0.1564  0.0862
    1WF      WF70284   8.927   4.743   8.148 -0.2616  0.1537  0.1009
    1WF      WF70285   7.426  20.207   8.485  0.1854 -0.1311 -0.2149
    1WF      WF70286  12.841   1.590   0.928  0.1828 -0.2724  0.1537
    1WF      WF70287   8.246  20.680   1.127 -0.0386 -0.2259 -0.3387
    1WF      WF70288   2.941  10.137   1.103 -0.1298 -0.1742 -0.0065
    1WF      WF70289   8.603  27.590   1.183 -0.1563  0.0654 -0.2910
    1WF      WF70290  22.540   5.892   6.250  0.0653 -0.1936 -0.2917
    1WF      WF70291  13.927  25.505   0.295 -0.0157  0.2879  0.0739
    1WF      WF70292   5.523   1.759   8.677  0.0542 -0.1177 -0.0362
    1WF      WF70293   2.760   1.412   7.978  0.0886 -0.4165 -0.2050
    1WF      WF70294  15.359  19.906   1.268 -0.3965 -0.0795  0.3640
    1WF      WF70295  21.263   5.289   7.857 -0.0025 -0.1402 -0.2592
    1WF      WF70296  16.224   5.632   0.796 -0.0596 -0.0501  0.2074
    1WF      WF70297  23.257  21.446   7.904  0.1541  0.2443  0.1856
    1WF      WF70298  11.736   4.115   0.643  0.0415  0.1816 -0.0298
    1WF      WF70299   2.982   2.426   0.460  0.0382 -0.1041  0.1196
    1WF      WF70300   9.433  20.400   6.033 -0.0164 -0.2851 -0.1342
    1WF      WF70301   7.722   0.866   7.166 -0.0604  0.1927  0.1823
    1WF      WF70302  23.094  19.649   0.694  0.1300 -0.2573 -0.1087
    1WF      WF70303  16.899   8.143   7.362 -0.0576  0.0316  0.1904
    1WF      WF70304  23.106  19.886   9.198  0.0560  0.1012  0.0624
    1WF      WF70305  26.898   1.188   2.395  0.0188  0.0911  0.1046
    1WF      WF70306  23.172   3.099   1.758 -0.2952 -0.2149 -0.0621
    1WF      WF70307   5.551  13.946   0.031  0.0452 -0.0170  0.0186
    1WF      WF70308   3.118  10.511   8.833 -0.0664 -0.1218  0.0045
    1WF      WF70309  26.735  19.033   7.173 -0.1415 -0.0061 -0.2036
    1WF      WF70310   8.735  11.477   0.000 -0.2457  0.0767  0.0263
    1WF      WF70311  25.843  13.015   0.231 -0.1731 -0.3871  0.3756
    1WF      WF70312  19.449  12.191   2.991  0.2211  0.1525  0.1242
    1WF      WF70313   7.026  29.254   8.565 -0.0645 -0.1067 -0.1720
    1WF      WF70314  24.881  12.662   7.383  0.0431  0.0258 -0.3085
    1WF      WF70315   5.758   2.935   8.603 -0.0993  0.0420 -0.0285
    1WF      WF70316  24.763   0.202   8.812 -0.0016  0.0615 -0.1038
    1WF      WF70317  17.565   1.090   6.033 -0.2599  0.0492  0.0113
    1WF      WF70318  10.363   7.544   6.638 -0.4007 -0.0299 -0.0602
    1WF      WF70319   8.803  24.392   2.017  0.0626  0.1151  0.0530
    1WF      WF70320  25.124   7.555   7.720  0.1885 -0.2972 -0.2539
    1WF      WF70321  10.884  10.517   0.499  0.2254  0.2911 -0.0203
    1WF      WF70322  11.560  23.685   7.855  0.1215 -0.0696 -0.1612
    1WF      WF70323  22.667  22.509   9.088 -0.4255  0.2706 -0.2770
    1WF      WF70324  20.221   9.095   0.973 -0.0011 -0.0311  0.0277
    1WF      WF70325  26.507  15.451   9.250 -0.2250 -0.2126  0.0792
    1WF      WF70326   3.131  28.530   2.674 -0.1946 -0.0167 -0.3093
    1WF      WF70327  11.306  19.664   5.954  0.2946  0.0493 -0.0843
    1WF      WF70328  11.578  12.828   8.965 -0.0962 -0.1514  0.2822
    1WF      WF70329  25.617  27.456   6.607 -0.0605 -0.0770 -0.0402
    1WF      WF70330  11.431   6.770   2.890  0.1625 -0.0909 -0.4317
    1WF      WF70331  13.750  17.846   7.857  0.2188 -0.1623  0.1167
    1WF      WF70332  20.799  17.565   6.889 -0.0078  0.2005 -0.3426
    1WF      WF70333  19.044  19.806   8.958  0.0799 -0.1035  0.2621
    1WF      WF70334  23.254  14.932   7.361  0.0916 -0.0371  0.1134
    1WF      WF70335  13.019  23.664   3.067 -0.2819  0.2098  0.0012
    1WF      WF70336   3.821   5.190   8.791 -0.2948  0.2227 -0.0511
    1WF      WF70337   7.470   2.842   0.741  0.0910  0.0937  0.3549
    1WF      WF70338   8.683   5.397   0.120  0.3731  0.1693  0.1936
    1WF      WF70339  17.474  24.874   7.862 -0.1009  0.0544  0.1076
    1WF      WF70340  10.608  25.626   9.102  0.0090  0.2396 -0.1798
    1WF      WF70341   5.498  19.172   0.234 -0.0644 -0.2012 -0.1514
    1WF      WF70342  17.247  13.120   1.168 -0.0716 -0.5447  0.3690
    1WF      WF70343   6.960   3.660   3.308  0.1153  0.0440  0.2972
    1WF      WF70344  24.420  26.684   0.134 -0.1972  0.0844 -0.1990
    1WF      WF70345  22.196  17.120   7.361 -0.0736 -0.3280 -0.1039
    1WF      WF70346  23.757  18.528   6.852  0.1684 -0.0386 -0.0788
    1WF      WF70347  10.030  21.444   8.990 -0.1675 -0.1425 -0.1577
    1WF      WF70348   7.342  20.143   7.153 -0.4096 -0.1987 -0.2595
    1WF      WF70349  26.448  27.077   1.379  0.0202 -0.0860  0.0090
    1WF      WF70350   7.641   8.977   8.997  0.2654 -0.1278 -0.1550
    1WF      WF70351   9.031  17.734   8.531  0.1369 -0.5301 -0.1316
    1WF      WF70352  24.901   2.318   1.277 -0.0853  0.1766 -0.0031
    1WF      WF70353   6.660  27.775   6.745  0.1613  0.1448  0.0580
    1WF      WF70354  14.375  22.356   2.856  0.2428  0.1111  0.1554
    1WF      WF70355  23.727   1.988   9.188 -0.1794 -0.0003  0.0904
    1WF      WF70356  11.244  19.050   8.967  0.4866 -0.1070  0.0200
    1WF      WF70357  16.423  12.115   6.800  0.2386  0.2018 -0.2296
    1WF      WF70358  12.085   5.882   0.584  0.2227  0.1658  0.1489
    1WF      WF70359  17.164  20.655   7.698 -0.1226 -0.0448 -0.0206
    1WF      WF70360  26.541  19.923   8.493  0.1080  0.0307 -0.1891
    1WF      WF70361   6.179   7.662   1.381  0.1265  0.2458 -0.3845
    1WF      WF70362  18.257  28.281   8.855  0.2877  0.2436  0.1048
    1WF      WF70363  10.534  26.981   7.423 -0.2708  0.0239 -0.2489
    1WF      WF70364  12.313  14.949   8.643  0.0107  0.2643  0.3239
    1WF      WF70365  14.333  30.091   2.074  0.0130  0.1338  0.0736
    1WF      WF70366  21.860  20.244   6.981 -0.0042  0.1180 -0.1060
    1WF      WF70367  15.140   0.036   7.872  0.3094 -0.0416 -0.2486
    1WF      WF70368  29.372  21.597   0.733 -0.0890  0.2640  0.3293
    1WF      WF70369  13.346  15.359   0.739  0.4191  0.1278 -0.4627
    1WF      WF70370   8.976  26.958   6.197  0.0588  0.2532  0.1675
    1WF      WF70371  29.287   8.443   1.143  0.1886 -0.2744 -0.1663
    1WF      WF70372  16.805  10.148   8.934 -0.2538  0.4331  0.2499
    1WF      WF70373  28.295  10.379   0.251 -0.0128 -0.1998 -0.2023
    1WF      WF70374   4.232   7.901   9.173  0.1779 -0.2394 -0.1990
    1WF      WF70375   6.556  25.100   1.246 -0.1747 -0.2612 -0.0243
    1WF      WF70376  18.907  17.318   8.987 -0.1543 -0.1441  0.2912
    1WF      WF70377  15.585  27.452   1.336  0.2478  0.2235  0.1778
    1WF      WF70378  11.025  15.514   2.949 -0.0465 -0.0932 -0.0421
    1WF      WF70379   9.502   6.984   0.112  0.0614  0.0950 -0.2183
    1WF      WF70380  10.833  24.908   1.668  0.0997 -0.3135  0.0978
    1WF      WF70381  26.280  20.786   0.662  0.0549  0.1077 -0.0842
    1WF      WF70382  15.083  28.669   1.872 -0.3317  0.2367 -0.1471
    1WF      WF70383  28.698   7.728   8.065 -0.0367  0.2158 -0.0563
    1WF      WF70384   6.865   4.111   8.501 -0.0946 -0.3015 -0.0228
    1WF      WF70385  22.013  25.777   6.746 -0.0667 -0.0702  0.0381
    1WF      WF70386   6.440  28.987   0.864 -0.0316  0.0971 -0.2922
    1WF      WF70387  14.097   7.741   0.687  0.0188 -0.0017 -0.0088
    1WF      WF70388   3.424  28.832   0.090  0.2411 -0.0446 -0.1777
    1WF      WF70389  23.543   5.082   6.977 -0.1483 -0.0034  0.1190
    1WF      WF70390  25.635  19.925   6.638 -0.0102 -0.0148  0.2823
    1WF      WF70391  23.574  15.108   8.764  0.0742  0.1630 -0.1682
    1WF      WF70392   8.353   3.092   2.775  0.0166  0.1146 -0.1172
    1WF      WF70393  21.668   5.561   6.187  0.1212 -0.0103 -0.1839
    1WF      WF70394  20.777  23.030   0.558 -0.1439 -0.1855 -0.1663
    1WF      WF70395  23.987   6.020   9.219  0.3143 -0.2890 -0.1482
    1WF      WF70396  12.448  19.878   7.141  0.1431  0.0622  0.3512
    1WF      WF70397  30.342   4.322   8.484  0.0114 -0.3942 -0.5655
    1WF      WF70398  14.889  17.201   8.501  0.1539  0.4888  0.1566
    1WF      WF70399  26.438  15.942   9.265  0.0959  0.0632 -0.3144
    1WF      WF70400  20.428   0.894   9.176 -0.2821  0.0220  0.0596
    1WF      WF70401   8.510  11.645   0.460  0.4599  0.1240  0.4144
    1WF      WF70402  23.525  18.166   6.562 -0.0039  0.2146 -0.2319
    1WF      WF70403  13.241   6.402   1.440 -0.0851  0.0203  0.3443
    1WF      WF70404  21.725  19.713   7.140  0.1127  0.0768 -0.2346
    1WF      WF70405  21.940  28.636   8.474 -0.0659 -0.2188 -0.0690
    1WF      WF70406  12.327  18.181   9.223 -0.0456  0.1511  0.1338
    1WF      WF70407  11.302  23.488   9.038  0.2969 -0.2549 -0.1999
    1WF      WF70408  23.983  23.636   3.009  0.0521  0.1204 -0.2564
    1WF      WF70409  15.324   8.585   8.492  0.1485  0.0754 -0.0585
    1WF      WF70410  23.422  27.679   0.306 -0.1134 -0.0143 -0.1080
    1WF      WF70411  18.982   6.749   9.039  0.0267  0.3015  0.0394
    1WF      WF70412   6.353  15.781   0.560 -0.0681  0.1416 -0.1095
    1WF      WF70413  19.743   1.697   8.426  0.1362  0.3006  0.2955
    1WF      WF70414  11.293   0.617   8.858 -0.3272  0.2524  0.1728
    1WF      WF70415   9.795  24.899   1.048  0.0551  0.0586 -0.0421
    1WF      WF70416  11.935  24.872   9.104 -0.1622  0.1603  0.1334
    1WF      WF70417   0.932  26.269   0.885  0.0984 -0.2914 -0.0192
    1WF      WF70418  15.518  15.925   1.698 -0.1228  0.2229  0.2606
    1WF      WF70419   0.428  15.408   9.077 -0.0215 -0.0646 -0.0235
    1WF      WF70420  28.651   8.245   8.054  0.0251 -0.1278  0.2900
    1WF      WF70421   6.924  24.885   2.261  0.2820 -0.0665  0.0353
    1WF      WF70422   1.511  10.811   9.222  0.0302 -0.2388  0.3060
    1WF      WF70423  21.694   5.166   8.058 -0.3149  0.2503 -0.1113
    1WF      WF70424  12.559  27.200   8.406  0.0400 -0.3051  0.1171
    1WF      WF70425  18.055  16.301   3.289 -0.1967 -0.0340  0.2341
    1WF      WF70426   9.240  16.369   0.507 -0.0541 -0.0526  0.1118
    1WF      WF70427  11.805  10.428   7.842  0.0159 -0.0199 -0.3844
    1WF      WF70428  18.838   2.463   7.772  0.3351 -0.2184  0.0658
    1WF      WF70429  29.011   6.440   2.665 -0.2158  0.0275 -0.0652
    1WF      WF70430  27.985  13.206   2.497  0.0083  0.1760 -0.1485
    1WF      WF70431  20.659  18.791   7.852 -0.0591  0.2161 -0.1762
    1WF      WF70432   0.912  23.881   1.423 -0.0579 -0.1022  0.0734
    1WF      WF70433   5.893  22.883   0.068 -0.2281 -0.0131  0.2594
    1WF      WF70434  14.071  18.921   7.895 -0.3347 -0.0102  0.3111
    1WF      WF70435   5.988  10.069   0.192  0.3376  0.0497  0.2696
    1WF      WF70436   6.037   9.882   0.662  0.3544 -0.1198  0.0757
    1WF      WF70437  21.600  15.174   0.841 -0.0332  0.1167  0.1405
    1WF      WF70438   8.749   4.304   7.827 -0.0063 -0.1375 -0.1342
    1WF      WF70439  24.854  16.333   0.334  0.0642 -0.0036  0.0355
    1WF      WF70440   9.714  12.539   9.078 -0.1274 -0.2196 -0.2724
    1WF      WF70441  12.349  20.247   7.584  0.0736  0.2930  0.1848
    1WF      WF70442   9.701  18.405   7.905  0.1401 -0.0361  0.2837
    1WF      WF70443   3.781   8.179   9.192  0.0154 -0.1572 -0.1958
    1WF      WF70444   7.983   7.892   1.825  0.1254 -0.0715 -0.0524
    1WF      WF70445  26.578   5.575   8.467 -0.0375 -0.2451  0.3509
    1WF      WF70446  19.925   0.751   9.172 -0.1097 -0.0566 -0.2234
    1WF      WF70447  15.707  11.410   0.039 -0.2306 -0.0713 -0.1350
    1WF      WF70448   7.272   5.051   8.875  0.1366 -0.0122  0.3076
    1WF      WF70449  28.718   0.221   0.419 -0.0446  0.3335 -0.1053
    1WF      WF70450  20.222   9.803   8.947  0.2363 -0.1266  0.0509
    1WF      WF70451  18.233  21.016   0.067 -0.1977 -0.2878 -0.2329
    1WF      WF70452   6.240  17.860   1.769  0.0643 -0.1923 -0.0555
    1WF      WF70453  20.369  20.470   7.986 -0.1583 -0.0640  0.1559
    1WF      WF70454  19.698  28.130   1.174  0.0923 -0.3422 -0.1357
    1WF      WF70455   7.784  16.910   8.493 -0.3164  0.3573  0.0714
    1WF      WF70456   3.848  22.665   8.098 -0.0745  0.0021 -0.2856
    1WF      WF70457   6.225  11.544   8.181 -0.2324  0.2095  0.0401
    1WF      WF70458   1.643  11.423   0.673  0.4519 -0.0760  0.0079
    1WF      WF70459  19.895   3.792   7.598 -0.2089 -0.2520 -0.2364
    1WF      WF70460   0.995  28.956   0.718 -0.3283  0.1083  0.3663
    1WF      WF70461   6.498  22.227   6.082 -0.0130  0.1075  0.0206
    1WF      WF70462   8.463  22.918   9.003 -0.0448 -0.0128  0.0486
    1WF      WF70463  20.940  17.306   5.777 -0.0143 -0.2937  0.0917
    1WF      WF70464  25.077  25.695   8.911  0.2296 -0.1286  0.2666
    1WF      WF70465  23.176   4.834   6.788  0.0133 -0.1780 -0.1565
    1WF      WF70466  20.643  24.409   8.047 -0.0204 -0.2864 -0.4270
    1WF      WF70467  26.642  15.556   6.846 -0.4415 -0.0350  0.3586
    1WF      WF70468  29.314   6.609   1.601  0.0461  0.2676  0.0780
    1WF      WF70469   5.709   1.396   2.852 -0.0495 -0.2037  0.0179
    1WF      WF70470   9.894   2.856   1.509  0.4800  0.2377  0.1119
    1WF      WF70471  16.425   6.458   1.650  0.0791 -0.1662 -0.1027
    1WF      WF70472   2.467  26.523   7.789  0.0527  0.1075 -0.0533
    1WF      WF70473  16.695   9.237   8.375  0.1781  0.0475 -0.0289
    1WF      WF70474   6.526  16.241   0.698  0.0828 -0.0618  0.1522
    1WF      WF70475  13.844   7.767   8.047  0.0587 -0.2194 -0.0193
    1WF      WF70476  12.741  25.955   1.205 -0.2256  0.2586  0.2706
    1WF      WF70477  16.334   0.084   0.605  0.0417  0.0888 -0.4944
    1WF      WF70478  19.270  18.559   1.539  0.0246  0.0843 -0.3820
    1WF      WF70479  15.432  27.344   0.830  0.0578  0.2535 -0.2085
    1WF      WF70480  26.803   4.805   3.003 -0.0674 -0.2408 -0.0317
    1WF      WF70481  20.627   8.587   0.921  0.2077 -0.0127  0.0981
    1WF      WF70482  10.589  19.524   8.348  0.0544  0.4333 -0.4436
    1WF      WF70483   9.257   4.513   7.728 -0.1769 -0.0245 -0.0296
    1WF      WF70484   9.140  17.239   8.435  0.0220 -0.2309  0.1202
    1WF      WF70485  29.084  12.100   8.978 -0.0428  0.0364  0.1281
    1WF      WF70486  27.937  26.871   1.161 -0.3050 -0.1237  0.0510
    1WF      WF70487  15.624   9.548   8.436 -0.1524  0.1837  0.0124
    1WF      WF70488  10.169  14.880   8.836  0.3741  0.3830  0.0842
    1WF      WF70489   2.694  14.440   1.508  0.1513  0.0830  0.1321
    1WF      WF70490  22.088  24.156   2.463 -0.1511  0.2895  0.0329
    1WF      WF70491  22.757  28.511   2.192  0.0293 -0.1783  0.1146
    1WF      WF70492  14.780   8.675   7.412  0.0207 -0.1290 -0.0038
    1WF      WF70493  29.486  22.567   8.589 -0.2681  0.0505 -0.0848
    1WF      WF70494   6.407   9.276   1.439  0.1231  0.2742  0.2414
    1WF      WF70495   0.336   5.286   8.068  0.0962 -0.0450 -0.0986
    1WF      WF70496   0.330   4.699   0.534 -0.0548 -0.0968  0.0863
    1WF      WF70497  14.122  25.896   8.321 -0.1253  0.1345 -0.1290
    1WF      WF70498   6.364   9.561   8.135  0.0453  0.2393  0.0823
    1WF      WF70499  27.492   1.449   0.833 -0.0531 -0.0071  0.3707
    1WF      WF70500  23.848   9.221   6.106 -0.0681  0.0112  0.0735
    1WF      WF70501  17.988  19.491   0.052 -0.0765 -0.1836 -0.1217
    1WF      WF70502  23.580   1.637   0.259  0.1299  0.1585 -0.0140
    1WF      WF70503   9.178   5.262   9.186 -0.1651  0.1774 -0.2562
    1WF      WF70504   4.142   3.170   0.908  0.2377 -0.0028 -0.0569
    1WF      WF70505   4.768  10.711   8.119 -0.0070  0.4154  0.0566
    1WF      WF70506  19.760   3.666   8.913  0.1473  0.3586  0.0780
    1WF      WF70507  16.140  19.609   7.616  0.2825  0.0184  0.2368
    1WF      WF70508   1.005   9.673   8.232  0.2347  0.0941  0.0003
    1WF      WF70509  16.888   6.061   8.841  0.0063  0.1566  0.0317
    1WF      WF70510  29.773  18.494   6.877  0.4052 -0.0040 -0.1377
    1WF      WF70511   4.262   9.673   9.190 -0.2975 -0.3310  0.0276
    1WF      WF70512  12.700  29.316   0.008  0.0645  0.1639  0.0298
    1WF      WF70513  10.537  25.565   6.515  0.2830 -0.4042 -0.2480
    1WF      WF70514  19.304  19.904   2.133 -0.2218 -0.2392  0.3902
    1WF      WF70515  21.911   9.359   0.378 -0.1186 -0.0326 -0.2829
    1WF      WF70516  19.730   2.681   0.976 -0.1408  0.0005  0.1310
    1WF      WF70517  14.509  27.700   6.246  0.0276  0.3243 -0.2706
    1WF      WF70518   5.909  23.613   8.463 -0.1414 -0.1809  0.1240
    1WF      WF70519  24.104  29.039   1.059  0.1054 -0.1122 -0.1471
    1WF      WF70520  20.250  18.562   0.034  0.0283 -0.1825  0.1236
    1WF      WF70521  19.209  11.544   0.814 -0.0963  0.0740 -0.1245
    1WF      WF70522  22.599  13.264   2.445 -0.3338 -0.0502 -0.2387
    1WF      WF70523  13.130  11.160   8.948 -0.1793 -0.0498  0.1526
    1WF      WF70524  26.410  26.808   7.650  0.3437 -0.3226 -0.0875
    1WF      WF70525  21.289   8.515   7.962  0.0870  0.3213 -0.0552
    1WF      WF70526   6.385  13.926   8.525  0.2056  0.2063 -0.0237
    1WF      WF70527  16.489  29.928   0.796 -0.3046 -0.1663  0.0346
    1WF      WF70528  17.367  21.554   9.153 -0.2439  0.0683 -0.2378
    1WF      WF70529  18.852  12.061   7.323 -0.0371  0.0872 -0.0164
    1WF      WF70530  27.371  29.152   2.340 -0.2350  0.2571  0.0297
    1WF      WF70531   7.020  28.206   8.387  0.0579  0.0937  0.0107
    1WF      WF70532   3.727   6.011   1.240 -0.1486 -0.0247  0.2376
    1WF      WF70533   7.658  18.753   0.501  0.0867 -0.0004  0.2405
    1WF      WF70534   0.585  28.927   0.407  0.3198  0.1102  0.0681
    1WF      WF70535  12.154  11.419   1.181 -0.4418 -0.1613 -0.1251
    1WF      WF70536  10.297  18.352   0.535 -0.3775 -0.1794  0.0015
    1WF      WF70537  27.829   9.190   7.443  0.0086 -0.0034  0.2498
    1WF      WF70538  19.909   8.586   7.146  0.2188 -0.1447  0.2335
    1WF      WF70539  12.804  24.825   8.090  0.0736 -0.0833  0.0019
    1WF      WF70540  14.284   5.686   7.733  0.2175 -0.0484 -0.0975
    1WF      WF70541   4.132  22.735   8.561  0.3503 -0.1811  0.0731
    1WF      WF70542  13.295  21.306   7.355  0.0785 -0.2279  0.3103
    1WF      WF70543  12.812  14.803   8.476 -0.2366 -0.1485  0.2013
    1WF      WF70544  23.608   6.614   0.800  0.0044  0.0026 -0.5222
    1WF      WF70545  12.035  27.144   2.116 -0.0744  0.1010 -0.1232
    1WF      WF70546   5.138  13.600   0.033 -0.1351  0.1365 -0.1628
    1WF      WF70547   8.676  25.491   8.217 -0.1448 -0.2915 -0.2372
    1WF      WF70548   9.249  22.396   0.456  0.0037 -0.1187  0.0660
    1WF      WF70549  17.619   9.162   7.881  0.2972  0.3386  0.1226
    1WF      WF70550  20.731  20.932   8.960 -0.0502 -0.0444 -0.0173
    1WF      WF70551  24.916   3.777   8.664 -0.2941 -0.3026  0.1904
    1WF      WF70552   9.727  20.987   6.586  0.1245  0.2394 -0.0752
    1WF      WF70553   0.110  15.977   1.402  0.2062 -0.2246  0.2025
    1WF      WF70554   4.803   7.334   0.853 -0.2476  0.1102 -0.1536
    1WF      WF70555   7.673   7.928   0.489 -0.0134 -0.1374  0.0895
    1WF      WF70556  15.844  19.683   8.718 -0.0366  0.0259  0.1236
    1WF      WF70557  17.824   0.402   0.863 -0.0079  0.0692  0.1608
    1WF      WF70558  26.240  10.864   9.095 -0.4275  0.0928 -0.0760
    1WF      WF70559  17.331  11.224   9.110  0.1957 -0.1782  0.2505
    1WF      WF70560   0.688   5.584   7.319  0.1659  0.1111 -0.0540
    1WF      WF70561   5.694  25.891   1.631  0.0987 -0.0380 -0.1877
    1WF      WF70562  17.791   5.285   1.328 -0.2627  0.0280 -0.0521
    1WF      WF70563  29.231   3.938   7.324 -0.2945  0.3051 -0.2232
    1WF      WF70564  29.943  30.258   3.091  0.0703 -0.0471  0.1175
    1WF      WF70565  12.875  21.697   8.624  0.0408 -0.0141 -0.2466
    1WF      WF70566  18.938   1.676   8.307 -0.0633  0.1847  0.3366
    1WF      WF70567  10.179  29.940   0.495 -0.1357 -0.2042 -0.0651
    1WF      WF70568   1.910  24.467   8.590  0.2181  0.2688 -0.0984
    1WF      WF70569  15.312   9.106   8.499 -0.0240  0.0756  0.0867
    1WF      WF70570   0.178  13.863   0.912 -0.0189  0.3464 -0.3253
    1WF      WF70571  16.136   5.630   6.545 -0.1640 -0.2628 -0.1467
    1WF      WF70572  23.244  21.954   7.875  0.1034  0.0654 -0.1247
    1WF      WF70573  24.826  27.219   8.847  0.2336  0.0372 -0.3266
    1WF      WF70574   7.511  16.487   8.746  0.2901  0.2902 -0.0944
    1WF      WF70575  23.870  23.092   0.051 -0.3126  0.2462  0.0313
    1WF      WF70576  11.047   6.512   8.158  0.2773  0.1236  0.1463
    1WF      WF70577  22.344  26.577   0.748 -0.0350  0.2618 -0.1892
    1WF      WF70578  16.525  23.413   9.149 -0.0596  0.0539  0.2143
    1WF      WF70579   2.648   6.930   7.811  0.0998 -0.2767 -0.4192
    1WF      WF70580  15.868  16.174   2.106  0.2305 -0.1446 -0.1106
    1WF      WF70581  21.274  17.556   7.028  0.1595 -0.0080 -0.2422
    1WF      WF70582  22.476  28.925   0.648 -0.2250  0.1246  0.3076
    1WF      WF70583  14.021  21.557   7.602  0.2841  0.1332 -0.0943
    1WF      WF70584   6.925   0.195   1.211  0.0271 -0.0065 -0.0730
    1WF      WF70585   6.455   9.957   8.417 -0.1120 -0.1741 -0.1012
    1WF      WF70586  13.536  14.802   8.352  0.0872  0.0163  0.2172
    1WF      WF70587  11.522   6.766   8.068 -0.0069 -0.0409  0.0375
    1WF      WF70588   6.192  10.095   1.046 -0.1605  0.1779 -0.4163
    1WF      WF70589   6.367   5.836   9.031  0.3028  0.1848 -0.0271
    1WF      WF70590  17.745   7.641   8.474 -0.0205 -0.0621  0.1868
    1WF      WF70591   0.350  27.298   3.257  0.3766  0.1896 -0.0109
    1WF      WF70592   7.139  23.397   9.186  0.2570 -0.0496 -0.1624
    1WF      WF70593  26.284  21.878   8.380 -0.4086  0.5212  0.1350
    1WF      WF70594  28.736   1.684   9.111  0.1460 -0.2664  0.0611
    1WF      WF70595  15.725  29.604   2.212  0.0297  0.1279  0.2646
    1WF      WF70596  23.131  14.932   8.625  0.1384  0.0277 -0.0392
    1WF      WF70597   2.252  23.347   9.001  0.0314  0.1450 -0.3244
    1WF      WF70598  10.298  13.210   8.657  0.0373 -0.3497 -0.2029
    1WF      WF70599  14.297  19.210   1.561  0.0189  0.2314  0.3956
    1WF      WF70600   4.303  19.580   9.129 -0.0577  0.0184  0.1795
    1WF      WF70601  18.809  15.381   8.127 -0.0705 -0.2312 -0.1825
    1WF      WF70602   3.800   3.173   1.828 -0.0733 -0.3249 -0.0937
    1WF      WF70603  13.647   2.063   1.203  0.4042  0.0328 -0.0332
    1WF      WF70604  20.553   4.493   0.442 -0.2285 -0.0332 -0.2505
    1WF      WF70605  12.505  10.942   0.673 -0.0164  0.1025 -0.0052
    1WF      WF70606  16.189  16.772   0.165 -0.1988  0.0072  0.2022
    1WF      WF70607   5.832   1.588   2.361 -0.0090 -0.1264  0.0150
    1WF      WF70608   1.587  24.402   8.189 -0.0158 -0.0479 -0.2596
    1WF      WF70609  19.926  15.301   7.012  0.0311  0.2046 -0.0049
    1WF      WF70610  10.236   4.713   1.474 -0.4000 -0.0114  0.0461
    1WF      WF70611  16.623  18.106   2.619  0.4655  0.0009  0.1730
    1WF      WF70612   6.039   1.168   2.573  0.1030  0.3338  0.1558
    1WF      WF70613   8.646   9.010   1.070  0.0829  0.0153  0.0690
    1WF      WF70614  29.905   7.332   2.545  0.0993  0.0873  0.1411
    1WF      WF70615  21.979  28.876   3.175 -0.1771  0.1105  0.2735
    1WF      WF70616  12.807  27.351   8.817  0.0759  0.0293 -0.0143
    1WF      WF70617  20.224  22.461   7.913  0.0228  0.3512  0.0645
    1WF      WF70618  27.326  28.550   8.547 -0.0270  0.1507  0.1671
    1WF      WF70619   0.441  30.001   0.772 -0.0467  0.0113 -0.1289
    1WF      WF70620  23.762  17.899   0.284 -0.3399  0.0166 -0.0152
    1WF      WF70621  19.074   8.715   8.683 -0.0150  0.0468 -0.0160
    1WF      WF70622  25.673   8.206   7.896 -0.1474 -0.0898  0.1462
    1WF      WF70623  10.358   0.249   6.948 -0.3891 -0.0340 -0.0923
    1WF      WF70624  16.502  11.407   7.957  0.1816  0.3063 -0.0449
    1WF      WF70625  16.290  20.028   8.715 -0.1397 -0.3408 -0.1961
    1WF      WF70626   3.482  20.072   0.264 -0.1164  0.0765  0.0526
    1WF      WF70627  20.402  20.972   7.665 -0.0771 -0.0151 -0.1565
    1WF      WF70628   4.670   4.831   1.493 -0.0182 -0.2539 -0.0511
    1WF      WF70629  15.219   1.250   0.690  0.1243 -0.0748  0.0966
    1WF      WF70630  13.599  24.693   7.869  0.0599 -0.2302  0.0861
    1WF      WF70631   5.340  18.809   7.331  0.2908  0.3322 -0.1076
    1WF      WF70632  14.822  27.952   6.575  0.0928  0.0685  0.1754
    1WF      WF70633   0.470   5.222   0.596  0.3006 -0.0050  0.1501
    1WF      WF70634   4.370  23.122   7.064  0.2505  0.0830  0.0343
    1WF      WF70635  11.259  20.147   2.361  0.1015 -0.0758 -0.2613
    1WF      WF70636  28.718   3.772   2.187 -0.0468 -0.1943  0.0481
    1WF      WF70637  17.885  23.189   6.954 -0.0403 -0.1279  0.0494
    1WF      WF70638  28.932  14.320   0.557  0.3424  0.0176  0.2226
    1WF      WF70639  23.370  13.033   2.233 -0.1713 -0.0984  0.1372
    1WF      WF70640  10.747  21.190   0.807  0.1862 -0.1943  0.0090
    1WF      WF70641  28.782   7.991   1.534  0.1062 -0.1333 -0.0680
    1WF      WF70642  20.564   0.099   0.823  0.0675 -0.1232  0.0241
    1WF      WF70643  13.415   5.510   8.124 -0.0347  0.0431  0.0682
    1WF      WF70644  11.535   0.404   0.031 -0.1749  0.3376  0.0764
    1WF      WF70645  24.029  22.747   1.175  0.1406 -0.3737 -0.0148
    1WF      WF70646  26.035  24.476   0.956  0.2545 -0.2870 -0.4193
    1WF      WF70647   2.385  18.476   6.801  0.1280  0.1381 -0.1554
    1WF      WF70648   2.340  21.743   8.756  0.0540  0.0449  0.2065
    1WF      WF70649  20.993  29.882   1.136 -0.1782  0.1525  0.1677
    1WF      WF70650  25.036  25.062   0.709 -0.0282  0.0821 -0.1702
    1WF      WF70651  26.077   4.767   1.617  0.2098  0.1300 -0.1124
    1WF      WF70652  11.724   8.685   9.209  0.1491  0.0228  0.1427
    1WF      WF70653  23.599   9.699   6.487 -0.2107  0.2568  0.2520
    1WF      WF70654  20.340  26.405   1.882  0.0803 -0.0708  0.1042
    1WF      WF70655  17.160   1.352   6.935 -0.0477 -0.2367  0.0580
    1WF      WF70656  21.468   1.460   9.049 -0.0361 -0.0079 -0.1771
    1WF      WF70657  11.413  10.200   1.647 -0.3072  0.0225  0.1909
    1WF      WF70658   6.241  27.474   8.107 -0.1255 -0.0344  0.3530
    1WF      WF70659   4.431   7.687   8.780  0.2004  0.1086  0.0307
    1WF      WF70660  10.935   4.422   1.834  0.1240 -0.1530 -0.1465
    1WF      WF70661  22.005   5.438   8.372  0.2472  0.2080  0.1683
    1WF      WF70662  21.976  12.834   7.823  0.1899 -0.1595 -0.1366
    1WF      WF70663   0.276  10.215   8.626  0.1241 -0.4539  0.3234
    1WF      WF70664  10.209  26.672   7.265 -0.3036 -0.1110 -0.1913
    1WF      WF70665  14.891  28.757   7.413  0.0428  0.1378  0.0409
    1WF      WF70666  10.904   5.123   8.618 -0.1053 -0.3637 -0.0889
    1WF      WF70667  28.275  30.153   1.210  0.1062 -0.0673  0.0452
    1WF      WF70668  28.540  23.490   2.632  0.1034  0.0731 -0.1774
    1WF      WF70669   7.768   6.470   8.316 -0.1329  0.3467  0.1941
    1WF      WF70670  14.838  15.620   8.632 -0.4256 -0.0997  0.0036
    1WF      WF70671  11.379  27.144   8.762  0.0056 -0.0280 -0.1620
    1WF      WF70672  22.752  21.854   8.080 -0.3408  0.0072  0.0398
    1WF      WF70673  22.206  26.737   6.714 -0.2281  0.0643  0.0483
    1WF      WF70674  22.044  26.856   2.013  0.1600  0.2351 -0.2546
    1WF      WF70675  10.924   4.303   8.529 -0.0291  0.1395  0.0427
    1WF      WF70676  18.054  14.990   0.632  0.3253 -0.2100  0.2587
    1WF      WF70677   2.768  25.015   0.050 -0.0116  0.0037 -0.1894
    1WF      WF70678  17.867   7.837   7.323  0.1001 -0.1123 -0.0119
    1WF      WF70679  26.315  19.461   8.470  0.0934 -0.1699  0.1997
    1WF      WF70680  16.942  27.091   2.618  0.2702  0.3258 -0.1950
    1WF      WF70681  30.018   2.763   1.711 -0.1522  0.1129 -0.0139
    1WF      WF70682  12.116  16.192   0.341  0.0230 -0.2284  0.0525
    1WF      WF70683   3.591   9.628   6.978  0.1037  0.1773  0.1353
    1WF      WF70684  15.482  25.154   9.193 -0.2112 -0.1393  0.2618
    1WF      WF70685  18.498   1.231   8.378 -0.1584  0.0457 -0.0885
    1WF      WF70686  12.935  14.195   0.871 -0.0791 -0.0363 -0.1846
    1WF      WF70687  29.143   6.464   6.726  0.1195 -0.1532 -0.2436
    1WF      WF70688  11.036  27.454   0.887  0.2269 -0.0048  0.0673
    1WF      WF70689  16.872  25.953   2.146  0.0592  0.0936  0.0227
    1WF      WF70690  25.329  16.031   8.076  0.1319 -0.1851 -0.2797
    1WF      WF70691  20.341  12.641   7.825  0.2634  0.2360  0.1400
    1WF      WF70692  30.068  21.311   7.961 -0.3490 -0.1285  0.1392
    1WF      WF70693   8.502  22.622   8.244 -0.0754  0.1234 -0.1182
    1WF      WF70694   4.791   4.457   1.837  0.2053  0.1359 -0.1706
    1WF      WF70695  13.173  19.028   0.564  0.1589 -0.0658  0.0341
    1WF      WF70696  14.562  11.526   2.409  0.0435  0.0424 -0.0584
    1WF      WF70697  13.057  24.213   6.080  0.1740  0.0512  0.1337
    1WF      WF70698  27.859  12.288   1.718 -0.0781  0.3387 -0.4622
    1WF      WF70699  12.907  27.279   1.662  0.1001  0.2098 -0.2021
    1WF      WF70700  16.569  14.215   1.408 -0.0185 -0.0555 -0.0984
    1WF      WF70701  29.817  19.698   8.223  0.5160  0.1876 -0.1144
    1WF      WF70702  23.050   0.593   8.018  0.1141 -0.1690 -0.0874
    1WF      WF70703  26.942  15.793   8.478 -0.3974 -0.0126  0.0840
    1WF      WF70704   8.930   7.716   2.473  0.1521  0.0146 -0.0983
    1WF      WF70705  17.419  24.516   7.497 -0.2222 -0.0154  0.1464
    1WF      WF70706   6.958   8.367   0.218  0.0114  0.2085  0.0845
    1WF      WF70707  11.829  16.074   1.432 -0.0941  0.0862 -0.1952
    1WF      WF70708  18.875  20.181   7.290  0.2202  0.1423 -0.0058
    1WF      WF70709  24.891  23.742   7.972 -0.2638  0.2738  0.3733
    1WF      WF70710   5.423  19.211   6.985  0.2019 -0.2382  0.0318
    1WF      WF70711  23.333  10.516   0.528  0.2422 -0.1162 -0.0670
    1WF      WF70712   8.541  15.760   0.772 -0.3060 -0.0915  0.4013
    1WF      WF70713  29.277  27.776   1.317 -0.0764 -0.2398  0.0054
    1WF      WF70714  18.556  15.522   0.863 -0.2019  0.0532 -0.2539
    1WF      WF70715  12.993   2.988   2.272 -0.3463  0.3438 -0.1353
    1WF      WF70716  15.922   6.846   0.825  0.2077 -0.0113 -0.1533
    1WF      WF70717  12.379   4.671   1.008  0.2056  0.2850  0.0776
    1WF      WF70718  24.227  13.427   0.370 -0.0095 -0.0253 -0.2754
    1WF      WF70719   3.434  25.670   8.217 -0.1271  0.2024  0.5008
    1WF      WF70720   5.364  18.755   0.539  0.0693  0.1161  0.2930
    1WF      WF70721   3.816  12.267   2.659 -0.2687  0.0119  0.0018
    1WF      WF70722   1.562   7.092   0.859  0.0424 -0.0228  0.0833
    1WF      WF70723   7.277   5.795   1.463 -0.3193 -0.2956 -0.0279
    1WF      WF70724   5.523   7.121   1.920  0.0436 -0.1412 -0.0214
    1WF      WF70725   2.979   5.599   3.404  0.0499 -0.2428  0.1987
    1WF      WF70726   2.275  27.880   3.654 -0.1163 -0.1611 -0.3448
    1WF      WF70727  12.498   1.103   6.828 -0.3303 -0.0029 -0.0741
    1WF      WF70728   7.310   8.895   0.075 -0.0247  0.0135 -0.0332
    1WF      WF70729  10.990   5.643   1.101 -0.0628 -0.2290  0.1132
    1WF      WF70730  26.883  16.981   7.630 -0.1010  0.0814 -0.0824
    1WF      WF70731  27.373  17.134   7.698 -0.0475  0.0692 -0.2695
    1WF      WF70732  29.005   0.456   8.568  0.5330  0.2685  0.3197
    1WF      WF70733   4.822  21.720   8.698 -0.0990  0.0898  0.0971
    1WF      WF70734  24.790   0.839   2.595  0.1697  0.1447 -0.0784
    1WF      WF70735   3.645  25.184   0.831  0.3678 -0.0808  0.0521
    1WF      WF70736   3.113  27.017   8.476 -0.1498 -0.3279  0.4544
    1WF      WF70737  21.108  19.021   7.767 -0.0571  0.1724  0.0925
    1WF      WF70738  11.846  25.815   7.766 -0.0614 -0.0835  0.3376
    1WF      WF70739  20.271  15.288   8.590 -0.2278 -0.0796 -0.2223
    1WF      WF70740   1.544   1.123   8.862  0.0377 -0.0285 -0.0297
    1WF      WF70741   7.070  16.387   8.446  0.1428 -0.1326 -0.0342
    1WF      WF70742  12.505   3.339   7.669 -0.0003 -0.3997  0.0406
    1WF      WF70743  22.750  13.686   2.629  0.3630 -0.0080 -0.0509
    1WF      WF70744  18.691  14.625   9.095  0.3306  0.6285 -0.3330
    1WF      WF70745   1.572   9.899   8.550  0.2048 -0.1385  0.1447
    1WF      WF70746   4.812   4.893   1.044 -0.0289  0.0584 -0.1693
    1WF      WF70747  10.788   2.953   8.687  0.3127 -0.0999  0.2200
    1WF      WF70748  13.418   5.254   7.640 -0.0899  0.0638  0.1739
    1WF      WF70749  20.381  20.148   8.426 -0.0464  0.1592  0.1586
    1WF      WF70750   7.206  13.702   8.349 -0.0312  0.3124 -0.1302
    1WF      WF70751  10.374   5.050   8.576 -0.0717 -0.2317  0.0366
    1WF      WF70752  24.051  25.850   0.892  0.0865 -0.2355  0.1132
    1WF      WF70753  10.205  25.730   6.885 -0.3212 -0.2065  0.1017
    1WF      WF70754   5.313  10.307   7.882 -0.1419  0.0595 -0.1423
    1WF      WF70755  24.249  11.035   9.230  0.1494 -0.2330 -0.0068
    1WF      WF70756  22.438   1.639   0.997 -0.1394 -0.0104  0.1767
    1WF      WF70757  15.815   2.450   9.070  0.4240  0.3269  0.2452
    1WF      WF70758  17.269  18.359   7.146  0.0553  0.0803 -0.0865
    1WF      WF70759  16.565   1.042   0.826 -0.1465 -0.0630 -0.0792
    1WF      WF70760  25.432  25.472   9.231 -0.1091 -0.2828  0.0315
    1WF      WF70761  11.235   4.762   1.459  0.0619 -0.1927  0.1526
    1WF      WF70762  13.513   6.276   0.179  0.0903 -0.1189  0.0158
    1WF      WF70763  15.572  18.543   5.784 -0.1516  0.1751 -0.1501
    1WF      WF70764  23.632  22.429   1.269  0.3228  0.2144 -0.0518
    1WF      WF70765   9.240  18.666   9.034  0.0050 -0.0069 -0.0355
    1WF      WF70766  22.189   6.914   9.217 -0.1730 -0.4205 -0.2223
    1WF      WF70767   2.451  18.822   7.845  0.0317 -0.1115  0.0028
    1WF      WF70768   6.998   8.391   2.997  0.1565 -0.0611  0.1870
    1WF      WF70769   5.827  15.265   7.805 -0.4168 -0.4004 -0.2393
    1WF      WF70770   7.214   3.051   8.155  0.0060 -0.0491  0.1688
    1WF      WF70771  29.793  14.479   1.078  0.0965 -0.0391 -0.0704
    1WF      WF70772  25.942  27.365   1.309  0.1967 -0.0347 -0.0816
    1WF      WF70773  23.249   2.014   0.161 -0.0363  0.0681  0.3452
    1WF      WF70774   5.492  11.172   7.470 -0.1103  0.0206 -0.0639
    1WF      WF70775  21.438  28.547   8.522  0.4244  0.2860  0.0972
    1WF      WF70776  14.315   0.986   8.614 -0.0408 -0.3983  0.1125
    1WF      WF70777   9.955  29.232   1.152 -0.1483 -0.0207  0.0974
    1WF      WF70778  18.253  21.263   2.886 -0.2314  0.0268  0.2081
    1WF      WF70779  26.144  21.233   1.000  0.0110 -0.1960 -0.0624
    1WF      WF70780   9.875   6.947   0.480  0.1470  0.2650 -0.0115
    1WF      WF70781   4.780   4.728   9.190 -0.3209 -0.2027  0.0361
    1WF      WF70782  12.186   3.617   7.354 -0.3010  0.0181  0.2092
    1WF      WF70783   4.836   8.080   0.827 -0.0358 -0.2668 -0.0693
    1WF      WF70784   9.204  29.158   2.760  0.3729  0.2100 -0.4450
    1WF      WF70785  17.724  19.087   0.852  0.2731  0.0603 -0.0310
    1WF      WF70786  11.649  16.106   0.089 -0.0776  0.0085  0.0270
    1WF      WF70787  24.233  17.619   0.188 -0.3013  0.4144  0.1164
    1WF      WF70788  14.618   0.035   0.451 -0.2352 -0.0733  0.0724
    1WF      WF70789   7.267  21.859   9.150  0.1208  0.2083 -0.2479
    1WF      WF70790  10.443  30.030   0.967  0.1012  0.3682  0.2693
    1WF      WF70791   6.723   1.208   7.800  0.0686 -0.1567  0.0509
    1WF      WF70792  14.963   1.437   0.231  0.1086 -0.2593  0.2373
    1WF      WF70793  13.162  12.932   8.796  0.0928  0.3704 -0.0005
    1WF      WF70794   5.755   5.050   6.749 -0.1664 -0.1699 -0.1974
    1WF      WF70795  14.117  21.746   8.215  0.0491  0.2435  0.0652
    1WF      WF70796  25.808   1.053   1.215  0.3526  0.1294  0.1476
    1WF      WF70797  22.942  10.316   6.707 -0.0456 -0.1371 -0.0420
    1WF      WF70798  27.212  20.887   9.124  0.0876 -0.0214 -0.0428
    1WF      WF70799  11.465  25.027   0.179  0.1066 -0.1188 -0.2440
    1WF      WF70800  19.441   3.836   7.837  0.0973 -0.3911  0.1078
    1WF      WF70801   8.864  22.444   7.964 -0.2341  0.1378 -0.1621
    1WF      WF70802   6.357  26.388   9.212  0.0406 -0.4063  0.0401
    1WF      WF70803  27.644  19.266   8.418 -0.0924 -0.0309  0.1781
    1WF      WF70804  27.916  25.563   8.851 -0.0838  0.0358  0.0763
    1WF      WF70805  27.456  29.068   0.881  0.0994  0.1850  0.2060
    1WF      WF70806  14.139  27.204   7.663  0.0470  0.0417  0.3592
    1WF      WF70807  19.052  21.007   1.513 -0.0903 -0.1546  0.1410
    1WF      WF70808  18.093  26.794   1.069  0.0592 -0.0212 -0.1313
    1WF      WF70809  30.273   0.803   9.132 -0.0747 -0.1943  0.1282
    1WF      WF70810  13.454  10.180   2.551  0.0026 -0.2592  0.0322
    1WF      WF70811  11.253   4.165   0.529 -0.1008 -0.1930 -0.1814
    1WF      WF70812  13.188  10.899   1.996  0.2812  0.2041  0.0610
    1WF      WF70813   1.826   4.072   8.963  0.4163 -0.0923 -0.1387
    1WF      WF70814  28.651   8.958   9.221  0.0947  0.0714 -0.0274
    1WF      WF70815  16.193  14.873   2.985  0.0812 -0.1569  0.6354
    1WF      WF70816   7.819  28.016   1.774  0.2158  0.0495 -0.1518
    1WF      WF70817   6.964   3.167   7.737  0.2905  0.2358  0.0691
    1WF      WF70818  29.931   7.464   8.343  0.1446 -0.1368  0.0102
    1WF      WF70819  26.019  19.312   8.016  0.1487 -0.1522  0.1516
    1WF      WF70820  20.133   8.710   1.242 -0.1976  0.0226  0.1134
    1WF      WF70821  14.917  19.653   7.488 -0.0768  0.1113  0.0358
    1WF      WF70822  18.961  17.262   0.207  0.0679 -0.1232  0.0125
    1WF      WF70823  11.963   1.024   7.794 -0.0877  0.2865 -0.1144
    1WF      WF70824  17.073  29.713   0.057  0.3781  0.2517  0.0105
    1WF      WF70825  29.370   4.038   0.337  0.0626 -0.2151 -0.1712
    1WF      WF70826  13.578  17.483   7.515 -0.3803 -0.1170  0.0675
    1WF      WF70827  19.985   9.145   0.533  0.3452 -0.1223  0.2518
    1WF      WF70828  21.461  21.475   7.499  0.0201  0.3279 -0.0114
    1WF      WF70829  21.958  10.718   7.394  0.1108 -0.0597 -0.2708
    1WF      WF70830  14.858   4.044   8.991  0.1265 -0.1200 -0.0551
    1WF      WF70831   6.672  27.310   6.920 -0.0758 -0.0020  0.1321
    1WF      WF70832  23.203  25.169   7.846  0.1400  0.2331 -0.0984
    1WF      WF70833  23.265  14.858   9.156 -0.3311 -0.3246 -0.1281
    1WF      WF70834  12.236  29.943   3.352  0.3531 -0.1368 -0.0428
    1WF      WF70835  24.023  24.417   8.985  0.0762  0.1248 -0.0275
    1WF      WF70836   5.678   1.700   7.481 -0.3125  0.0586  0.3089
    1WF      WF70837  30.000   2.584   0.792  0.3078  0.2067 -0.0525
    1WF      WF70838  24.738  30.048   0.487  0.3050 -0.0238 -0.3053
    1WF      WF70839  29.297   8.949   1.392  0.0492  0.1091  0.1139
    1WF      WF70840   3.923  11.891   8.721 -0.3093 -0.1470  0.1350
    1WF      WF70841   1.777   7.799   8.105 -0.0975  0.1794 -0.2107
    1WF      WF70842  13.104   1.117   8.760 -0.3962  0.3030  0.1781
    1WF      WF70843  14.363  16.133   6.114 -0.4048  0.0284  0.0182
    1WF      WF70844   3.712   3.671   8.020 -0.2158 -0.0764 -0.0054
    1WF      WF70845   9.429  25.864   7.946  0.2143 -0.1092 -0.3527
    1WF      WF70846   4.785  26.643   1.269  0.1204  0.6850 -0.0697
    1WF      WF70847  13.817   5.638   7.587  0.4322 -0.1642 -0.2489
    1WF      WF70848  24.570  24.947   0.473  0.2678  0.0539  0.1124
    1WF      WF70849  10.283  26.199   7.110  0.1007  0.2632  0.1853
    1WF      WF70850  22.385  19.737   0.013 -0.1053  0.2460  0.0963
    1WF      WF70851   0.669  26.403   1.531 -0.1182  0.0696  0.0150
    1WF      WF70852   2.168   4.316   7.422 -0.0594  0.1361 -0.0440
    1WF      WF70853   3.578   2.240   3.639  0.1293  0.0250 -0.0160
    1WF      WF70854   2.127  24.538   6.948 -0.0938  0.2232 -0.2254
    1WF      WF70855  29.401   3.254   3.251 -0.2643  0.3166  0.2012
    1WF      WF70856  23.651  18.530   0.051  0.2596  0.1064  0.1104
    1WF      WF70857  29.787  18.167   0.987  0.1229 -0.3248 -0.1016
    1WF      WF70858   6.303  22.287   7.992  0.2228  0.2674  0.2188
    1WF      WF70859   4.554  25.898   1.753 -0.1302  0.0751 -0.1080
    1WF      WF70860   8.795  22.573   0.452  0.1538  0.1687 -0.4288
    1WF      WF70861  26.495  26.817   7.135  0.0042  0.2450 -0.0950
    1WF      WF70862  14.297  29.234   1.603  0.0353 -0.2096 -0.0892
    1WF      WF70863   8.211   2.150   8.039 -0.0891 -0.1871 -0.0329
    1WF      WF70864  23.191  22.949   8.769  0.0791  0.1568 -0.0036
    1WF      WF70865  29.533  18.434   7.354 -0.1949  0.3797 -0.1473
    1WF      WF70866  13.141  22.505   1.405 -0.1167 -0.1818  0.1149
    1WF      WF70867  26.987   2.446   8.733  0.0189  0.0800  0.4491
    1WF      WF70868   0.890  26.837   1.781  0.0670  0.1752  0.0865
    1WF      WF70869  14.037  14.660   8.309 -0.0555  0.3217 -0.1420
    1WF      WF70870  19.867  28.404   7.191 -0.0313 -0.3840 -0.1332
    1WF      WF70871  21.983   4.838   9.176 -0.3220  0.1545  0.2229
    1WF      WF70872   1.304   0.626   2.037  0.0432  0.1533 -0.0663
    1WF      WF70873  15.842  25.415   8.912 -0.1647  0.0059 -0.0330
    1WF      WF70874   2.776  21.631   8.921  0.2219  0.2561 -0.3479
    1WF      WF70875   0.122  24.422   3.006 -0.1892  0.0499 -0.0573
    1WF      WF70876  18.665  16.514   6.227 -0.0637  0.0629 -0.0172
    1WF      WF70877   8.308   5.003   0.024 -0.3555  0.1342  0.1282
    1WF      WF70878  23.039  14.404   8.800 -0.0828  0.0054  0.0393
    1WF      WF70879  28.686  22.405   8.336  0.2045 -0.0063 -0.4035
    1WF      WF70880   2.812  27.967   1.564 -0.1360 -0.1191 -0.0752
    1WF      WF70881   4.305   4.641   1.702  0.0704 -0.2936 -0.0087
    1WF      WF70882   1.577  12.025   8.085  0.1034  0.1223 -0.0861
    1WF      WF70883   4.783  25.586   1.424 -0.2018 -0.1050 -0.0578
    1WF      WF70884  25.203  10.215   9.048 -0.0388 -0.1130 -0.0286
    1WF      WF70885   4.856  10.437   1.435  0.0610 -0.0823  0.2042
    1WF      WF70886  21.588   4.578   0.255  0.1193  0.2870 -0.2041
    1WF      WF70887  18.300   7.833   7.119 -0.1754  0.0772 -0.2632
    1WF      WF70888  14.263   1.488   8.536 -0.1820 -0.1351 -0.1085
    1WF      WF70889   3.362   2.635   0.391 -0.0449  0.0248  0.0761
    1WF      WF70890  28.516  14.263   8.250 -0.2518 -0.1334  0.1474
    1WF      WF70891  27.551  15.862   0.549 -0.2091  0.0867  0.0234
    1WF      WF70892  13.649   1.510   1.419 -0.0299 -0.3477  0.1836
    1WF      WF70893   7.454   7.548   8.132  0.1617 -0.0374  0.0705
    1WF      WF70894  21.446  29.223   8.460 -0.3026 -0.1672 -0.0598
    1WF      WF70895  24.117   6.951   1.349 -0.1084  0.3227  0.0323
    1WF      WF70896   1.857   7.368   8.310 -0.2237 -0.0286 -0.1012
    1WF      WF70897  16.159  11.168   0.067  0.1503 -0.0847  0.1238
    1WF      WF70898   6.883   0.516   8.236  0.1002 -0.1172  0.0215
    1WF      WF70899  20.154   4.260   2.352  0.2022  0.1905 -0.0192
    1WF      WF70900   8.311   7.164   1.470 -0.3273  0.1898 -0.4769
    1WF      WF70901  11.404  27.318   2.118 -0.1769  0.1977  0.0454
    1WF      WF70902  19.032  11.441   8.992  0.2024 -0.0290 -0.3417
    1WF      WF70903   7.604  17.165   1.285  0.0741 -0.2450  0.0220
    1WF      WF70904   8.586   0.373   8.857 -0.3783  0.0943 -0.1161
    1WF      WF70905   3.939   7.050   0.743 -0.0965  0.2175  0.1116
    1WF      WF70906  12.669   3.112   8.077  0.3169 -0.2812  0.1117
    1WF      WF70907  11.661  29.131   8.020  0.1111  0.0326 -0.0248
    1WF      WF70908  28.627   2.463   2.332  0.1969  0.0371  0.0247
    1WF      WF70909   7.364  29.756   8.852  0.1329 -0.0737  0.2139
    1WF      WF70910   0.383  15.337   7.000 -0.0322 -0.0420  0.1612
    1WF      WF70911  17.821  23.425   7.418  0.2932 -0.0278 -0.2764
    1WF      WF70912  15.735   7.091   9.126 -0.0093  0.0036 -0.0040
    1WF      WF70913  27.419  15.334   7.690  0.0715  0.2699  0.1054
    1WF      WF70914  23.168  15.428   7.320 -0.1467  0.2688  0.3164
    1WF      WF70915  28.889   8.155   0.780  0.4272 -0.1761  0.1440
    1WF      WF70916  23.337  13.959   8.705  0.0226 -0.2667 -0.1609
    1WF      WF70917   7.957   7.449   1.676 -0.1497  0.0448 -0.1171
    1WF      WF70918  17.891  19.411   1.199 -0.1527 -0.1619  0.2134
    1WF      WF70919  18.499   2.824   0.374  0.1237 -0.1732 -0.0272
    1WF      WF70920   2.728  14.398   0.980 -0.2110 -0.2369 -0.1583
    1WF      WF70921  18.167  12.423   0.777  0.3500  0.0980  0.1151
    1WF      WF70922   2.695  19.726   0.610 -0.0947  0.1765  0.1685
    1WF      WF70923  23.929  15.973   8.637 -0.1481  0.2124  0.1787
    1WF      WF70924   0.945  18.232   7.944  0.0253 -0.0846 -0.0735
    1WF      WF70925   8.476  28.704   6.535  0.0400  0.3865 -0.0169
    1WF      WF70926  28.202   6.784   0.202 -0.1098  0.1306 -0.1306
    1WF      WF70927  29.401  14.207   0.234 -0.1759  0.0519 -0.1671
    1WF      WF70928  11.493  15.769   8.993  0.0371  0.0785  0.0051
    1WF      WF70929   0.896   2.736   2.422 -0.0328 -0.0192 -0.1531
    1WF      WF70930   1.337  26.737   2.832 -0.2208  0.2577  0.1401
    1WF      WF70931  20.000  10.195   9.191  0.0634  0.2012 -0.0460
    1WF      WF70932  14.037  19.289   1.160  0.1804  0.2077 -0.2665
    1WF      WF70933  12.577   4.239   0.984  0.2048 -0.1127 -0.0333
    1WF      WF70934  14.710  17.328   8.973 -0.0619 -0.1349 -0.1134
    1WF      WF70935   8.096  27.428   8.054  0.0551  0.0773 -0.0576
    1WF      WF70936  23.445   1.187   0.413 -0.0911  0.0457  0.0531
    1WF      WF70937   7.683  19.488   8.943 -0.2717 -0.1920 -0.1859
    1WF      WF70938   4.001   2.030   8.158 -0.5140  0.0257  0.0137
    1WF      WF70939   8.020   4.110   9.213 -0.1486  0.3377  0.1277
    1WF      WF70940  18.281   5.334   1.593  0.0663  0.0784  0.0137
    1WF      WF70941  10.859   2.520   1.517 -0.1369 -0.1517  0.1466
    1WF      WF70942   7.957   0.422   0.035 -0.1046  0.0841  0.2398
    1WF      WF70943  21.090   5.862   7.224 -0.2507 -0.1692  0.0360
    1WF      WF70944  14.077   1.755   1.380 -0.0051 -0.2235 -0.1137
    1WF      WF70945   7.266   3.854   8.695 -0.0493  0.0329  0.0900
    1WF      WF70946  25.328   7.508   8.872 -0.0027 -0.3996 -0.2414
    1WF      WF70947  19.426  11.027   7.417  0.2215  0.1083  0.2837
    1WF      WF70948  28.507  29.272   8.698  0.0295  0.1326  0.1083
    1WF      WF70949  24.174  20.270   8.149 -0.0928  0.1148  0.2189
    1WF      WF70950   5.297  29.663   0.275 -0.0404 -0.1155  0.0996
    1WF      WF70951  11.430   0.502   7.314  0.0152  0.0166 -0.0372
    1WF      WF70952   2.675   0.508   0.654 -0.2423 -0.0528 -0.0563
    1WF      WF70953  28.541   7.063   7.965  0.0049 -0.1042  0.1877
    1WF      WF70954   9.968  20.113   8.721 -0.3798 -0.2199  0.1468
    1WF      WF70955  22.734  10.240   7.715 -0.3275 -0.3211  0.1187
    1WF      WF70956  26.879   1.755   2.494 -0.1188 -0.1911 -0.0781
    1WF      WF70957  19.697  14.242   9.189 -0.1551 -0.1381  0.0831
    1WF      WF70958  11.419  22.834   9.161 -0.3345 -0.1926 -0.2761
    1WF      WF70959  16.428   4.813   6.983 -0.1452 -0.0721 -0.1890
    1WF      WF70960  17.831  21.434   2.019 -0.1002 -0.1274 -0.0720
    1WF      WF70961  13.492  12.064   9.125 -0.0142 -0.2114  0.0261
    1WF      WF70962  22.135   6.420   9.091 -0.0843  0.1018  0.4942
    1WF      WF70963  27.081   0.694   0.496 -0.0470 -0.0574 -0.2947
    1WF      WF70964   6.847  29.686   1.993 -0.1101 -0.0955 -0.1110
    1WF      WF70965  24.182  14.352   0.874 -0.2109 -0.1345  0.2284
    1WF      WF70966  18.308  11.117   1.021  0.0104 -0.1390 -0.0787
    1WF      WF70967  19.414   9.299   8.909 -0.1475 -0.1931 -0.2100
    1WF      WF70968  24.564  26.710   8.954 -0.0578 -0.0705 -0.2407
    1WF      WF70969   6.139  16.519   8.666 -0.0760 -0.0683  0.0599
    1WF      WF70970   4.182  13.877   0.347 -0.0404 -0.0170 -0.2438
    1WF      WF70971  15.795   3.084   6.677  0.1468  0.1473  0.0143
    1WF      WF70972   5.729  17.593   0.657 -0.1654  0.0057 -0.0288
    1WF      WF70973  13.146  24.698   8.399  0.1214 -0.1309  0.1670
    1WF      WF70974  27.717  28.194   6.833 -0.1459 -0.2445  0.0185
    1WF      WF70975  15.918  27.845   6.180  0.3702 -0.1597  0.3172
    1WF      WF70976   5.141   6.123   8.459  0.0446 -0.1146 -0.4052
    1WF      WF70977  11.220   2.862   8.906 -0.0032  0.1240  0.2129
    1WF      WF70978  11.447   6.889   7.534 -0.0328  0.0124  0.1104
    1WF      WF70979  25.443  28.373   1.711  0.1274  0.3526  0.0475
    1WF      WF70980  14.429   0.073   2.542  0.1885  0.0859 -0.2255
    1WF      WF70981  22.610  25.723   7.790 -0.0149 -0.1823 -0.0758
    1WF      WF70982   7.940  18.381   0.660  0.0283  0.0345  0.1101
    1WF      WF70983   3.254  17.449   0.359 -0.2014 -0.0089 -0.2168
    1WF      WF70984  11.456   2.986   0.808  0.5992  0.1051 -0.0900
    1WF      WF70985   9.891  26.257   0.482  0.0667  0.0559  0.2437
    1WF      WF70986  21.881  14.093   0.446 -0.1407  0.2450 -0.1517
    1WF      WF70987  14.638   4.822   6.591 -0.1848  0.0549  0.4201
    1WF      WF70988  28.358  26.732   0.913  0.2136  0.2714 -0.0645
    1WF      WF70989  26.742   2.838   7.876 -0.3114  0.0513  0.0473
    1WF      WF70990  16.410   0.241   2.737 -0.0217  0.3756 -0.0656
    1WF      WF70991   9.847   4.494   1.548  0.0611 -0.2380  0.1148
    1WF      WF70992  25.824  25.762   2.226 -0.1325  0.2318  0.4910
    1WF      WF70993  18.634  16.197   8.512 -0.1328  0.2845 -0.3999
    1WF      WF70994  15.924   0.483   8.217  0.0239  0.0032  0.2583
    1WF      WF70995  11.455  10.796   8.020  0.0736 -0.2569  0.0087
    1WF      WF70996  30.240  18.033   1.146  0.1958  0.2706 -0.2461
    1WF      WF70997  29.744  25.280   1.275 -0.2420 -0.2425  0.1477
    1WF      WF70998  27.770  19.827   8.400  0.2151  0.1584  0.2373
    1WF      WF70999   2.966  14.038   7.960  0.3700  0.1532  0.1519
    1WF      WF71000  29.252  18.000   9.174 -0.2167 -0.0277 -0.0141
    1WF      WF71001  20.807  20.603   8.607  0.0970  0.1418  0.0722
    1WF      WF71002  11.319   5.022   8.370 -0.1666  0.0825  0.3386
    1WF      WF71003  19.574  14.974   6.818  0.1830  0.1388 -0.0868
    1WF      WF71004   6.474  21.567   1.716 -0.1069 -0.1328 -0.0852
    1WF      WF71005  25.055   9.934   0.712  0.0995  0.0694 -0.0981
    1WF      WF71006   0.608   8.583   0.762 -0.0564 -0.1947  0.1644
    1WF      WF71007  11.721   3.165   8.658 -0.3868  0.0868  0.0520
    1WF      WF71008   4.539  26.388   1.641 -0.1737 -0.0311  0.1214
    1WF      WF71009   9.734  28.516   0.986 -0.0746 -0.2161  0.2904
    1WF      WF71010  22.406  13.933   0.398  0.0746  0.2226  0.1550
    1WF      WF71011  28.726   1.633   1.471  0.0495  0.1281  0.1651
    1WF      WF71012   8.297   4.491   0.109 -0.1807  0.2067  0.3335
    1WF      WF71013  28.199  25.899   1.973  0.0533  0.0028 -0.0751
    1WF      WF71014  30.240   1.243   8.818 -0.0118  0.1436 -0.0394
    1WF      WF71015  10.103  20.587   8.877 -0.0057  0.2664  0.0611
    1WF      WF71016   6.990  28.704   8.509  0.0015  0.2519 -0.2272
    1WF      WF71017  17.940  10.414   7.969 -0.0676 -0.2536 -0.1857
    1WF      WF71018  19.088  11.470   0.259  0.0575 -0.3438  0.3270
    1WF      WF71019   5.006  28.327   0.548  0.1345  0.3102  0.1696
    1WF      WF71020  21.689   8.852   8.866  0.1630  0.0479 -0.1135
    1WF      WF71021  24.504   3.859   8.336  0.0372 -0.0914  0.0905
    1WF      WF71022  18.021   2.419   2.462  0.1286  0.4402 -0.0951
    1WF      WF71023  18.787   9.255   1.357 -0.1878 -0.0697 -0.3674
    1WF      WF71024  18.751  21.143   0.167 -0.0699  0.0774  0.0785
    1WF      WF71025   7.786   1.743   8.910 -0.3716  0.1277  0.2529
    1WF      WF71026   4.288  10.665   7.880  0.2712  0.0460  0.3191
    1WF      WF71027  22.914  28.899   2.520 -0.1874 -0.0930 -0.2029
    1WF      WF71028  14.961  14.107   0.367 -0.1647 -0.0238 -0.3544
    1WF      WF71029  20.291  11.535   8.918 -0.2709 -0.1983 -0.0228
    1WF      WF71030  19.113  16.211   8.570  0.2438 -0.3662  0.0810
    1WF      WF71031  18.766   0.642   7.502  0.3150 -0.0317 -0.0320
    1WF      WF71032  19.453  11.159   7.876 -0.0616 -0.1187 -0.2663
    1WF      WF71033  20.048   3.421   1.517 -0.0262 -0.1745 -0.0428
    1WF      WF71034  24.871   6.884   6.942 -0.1756  0.1952  0.1962
    1WF      WF71035  27.245  10.692   0.127  0.1427 -0.1894 -0.0853
    1WF      WF71036   4.566   9.387   8.900 -0.0083 -0.1235 -0.3132
    1WF      WF71037  19.492  23.805   7.996 -0.2155  0.3741  0.3141
    1WF      WF71038  17.862  12.254   1.864  0.1104 -0.2102 -0.1864
    1WF      WF71039  11.576   4.434   8.381  0.1510  0.1503 -0.4466
    1WF      WF71040   2.617  23.765   8.883 -0.1030 -0.1483 -0.1924
    1WF      WF71041  13.167   3.162   8.158 -0.0150  0.0837 -0.2763
    1WF      WF71042   3.628  29.739   0.738  0.2431 -0.0255  0.0060
    1WF      WF71043  14.101  26.993   8.065  0.0163 -0.1029 -0.2485
    1WF      WF71044   2.338   7.038   9.178 -0.0573 -0.3001 -0.0891
    1WF      WF71045   9.211   2.247   1.217 -0.0083  0.0910  0.0984
    1WF      WF71046  18.189   2.453   0.472  0.2202  0.0753  0.3091
    1WF      WF71047  13.339  17.897   7.521  0.1403 -0.1657  0.0860
    1WF      WF71048  28.712   6.826   7.543  0.1694 -0.0494  0.0270
    1WF      WF71049  18.388   5.155   8.395 -0.3829  0.2152  0.1357
    1WF      WF71050  30.012   7.224   0.256  0.0684  0.0989  0.0914
    1WF      WF71051   8.912   7.724   7.233  0.0595 -0.2166  0.1450
    1WF      WF71052  12.152   3.185   8.280  0.2551  0.0783  0.3234
    1WF      WF71053   9.725   9.636   3.410 -0.0636 -0.6316 -0.0381
    1WF      WF71054  12.046  29.532   1.958 -0.0120  0.0465 -0.2995
    1WF      WF71055  20.300   9.274   2.493  0.0680  0.1241  0.0702
    1WF      WF71056  24.867   5.360   1.822  0.2937 -0.0240  0.0237
    1WF      WF71057  18.324  15.906   3.047 -0.0334 -0.1338  0.0597
    1WF      WF71058  17.088  13.646   8.883 -0.3246  0.1002 -0.3637
    1WF      WF71059   4.469  24.383   7.394  0.3334  0.1050 -0.0790
    1WF      WF71060  26.655  25.271   6.066 -0.0589 -0.0135  0.3281
    1WF      WF71061  11.813   8.188   0.084  0.1000 -0.1657 -0.0153
    1WF      WF71062   1.072   6.865   3.072  0.1757  0.1702  0.2134
    1WF      WF71063  13.648  25.652   2.880 -0.2688  0.1827  0.0765
    1WF      WF71064   3.332   9.870   1.197  0.0257  0.1206  0.5317
    1WF      WF71065  25.274  28.422   8.250 -0.0343 -0.0112 -0.0037
    1WF      WF71066   5.858   7.797   8.224  0.0779 -0.0565 -0.2267
    1WF      WF71067  10.438  25.491   8.606  0.2293 -0.0144 -0.0738
    1WF      WF71068  24.101  26.452   1.627  0.0609 -0.0121  0.0694
    1WF      WF71069  28.114  11.987   9.058  0.0018  0.1465 -0.1679
    1WF      WF71070  19.267  13.412   1.155  0.1355 -0.1858 -0.0477
    1WF      WF71071  15.544  22.702   6.762  0.0221  0.1933 -0.3161
    1WF      WF71072  14.353   1.148   6.868  0.2263 -0.0201 -0.3285
    1WF      WF71073  20.851  25.566   1.752 -0.3483 -0.3707 -0.0556
    1WF      WF71074   8.143  17.132   8.745  0.0435 -0.1868  0.4088
    1WF      WF71075  17.607  28.776   7.851 -0.4285 -0.0283 -0.0274
    1WF      WF71076   5.042  20.909   0.592  0.2160 -0.0901  0.1192
    1WF      WF71077  10.779  27.109   2.749 -0.0556 -0.0633 -0.0283
    1WF      WF71078  12.416   7.759   1.854  0.0653 -0.1426 -0.0324
    1WF      WF71079  24.547  28.963   8.534 -0.0801  0.3255 -0.0225
    1WF      WF71080  23.933   9.326   8.004  0.2098 -0.0722 -0.3514
    1WF      WF71081  16.993   2.076   6.814 -0.0657 -0.0194  0.0652
    1WF      WF71082  20.294   4.462   8.180 -0.0069 -0.0423 -0.2278
    1WF      WF71083   4.707  16.395   8.424 -0.2710  0.1686  0.0131
    1WF      WF71084  26.641  25.695   0.565  0.1565 -0.0526 -0.1822
    1WF      WF71085  29.967  26.345   7.220 -0.1256 -0.2355 -0.2763
    1WF      WF71086  29.096  29.526   3.090  0.0019  0.1946 -0.0852
    1WF      WF71087  16.962  21.707   0.078 -0.3020  0.0913  0.0081
    1WF      WF71088   9.063   5.000   1.765 -0.2459  0.0272  0.1294
    1WF      WF71089  28.356   6.845   6.111 -0.0328  0.2712 -0.0150
    1WF      WF71090  23.023  10.256   8.192  0.1398 -0.2243  0.0551
    1WF      WF71091   6.496  15.199   1.755  0.2660  0.0675  0.0305
    1WF      WF71092  22.863  23.573   2.254  0.2495 -0.1979 -0.0489
    1WF      WF71093   8.927  29.820   1.835 -0.1974 -0.1289 -0.0308
    1WF      WF71094   3.756   0.981   6.727  0.0037  0.1811  0.0035
    1WF      WF71095  17.042  27.117   0.847 -0.0609 -0.2643 -0.0687
    1WF      WF71096  17.941  19.082   8.944  0.2361 -0.0725 -0.1405
    1WF      WF71097   5.613  24.434   8.286 -0.1623 -0.1209 -0.0975
    1WF      WF71098   3.926   1.563   0.968 -0.0137  0.0270  0.3073
    1WF      WF71099   0.261  21.040   8.677  0.0247  0.0246 -0.0828
    1WF      WF71100  19.593   6.449   7.483  0.2113  0.2752  0.0986
    1WF      WF71101  30.345  25.799   9.178  0.0142  0.3014 -0.1895
    1WF      WF71102  12.238   0.787   6.535  0.2712  0.0821  0.1156
    1WF      WF71103  29.156  19.567   0.455  0.1677  0.1191  0.0705
    1WF      WF71104  28.042  15.899   0.325  0.2482  0.2701 -0.1443
    1WF      WF71105  11.875  25.983   0.360  0.0083  0.1770  0.0477
    1WF      WF71106  21.353   8.971   8.445 -0.2262 -0.1061  0.0510
    1WF      WF71107  17.222  26.677   0.614  0.2528 -0.0842 -0.0350
    1WF      WF71108  10.395  11.254   9.093  0.1038 -0.0209  0.4731
    1WF      WF71109  12.392  28.326   1.368 -0.2955 -0.0399  0.3552
    1WF      WF71110  15.459  22.974   8.866 -0.0589 -0.1577 -0.3028
    1WF      WF71111  29.024  11.728   7.709  0.0457  0.0804  0.4096
    1WF      WF71112   7.796  14.560   8.494 -0.0645  0.0274 -0.2898
    1WF      WF71113  20.229   4.713   1.974  0.1565  0.0986 -0.2091
    1WF      WF71114   2.656   2.338   3.723  0.3169 -0.3480 -0.1930
    1WF      WF71115  13.228  25.952   2.843 -0.0291  0.1657 -0.2694
    1WF      WF71116  22.721   8.981   2.542 -0.0815  0.2715  0.1808
    1WF      WF71117  23.498   0.133   8.806  0.0441 -0.0577  0.2679
    1WF      WF71118  16.218  25.089   9.134  0.0987  0.1570 -0.1393
    1WF      WF71119  29.283   1.340   3.067  0.1320 -0.3633  0.0666
    1WF      WF71120  30.080   0.989   1.468  0.4336  0.0774 -0.1710
    1WF      WF71121  19.303  25.475   7.590 -0.0247  0.2670  0.1961
    1WF      WF71122   4.608  11.206   0.266 -0.0593  0.0529  0.0648
    1WF      WF71123  26.272  26.499   6.645  0.0620  0.2409 -0.1041
    1WF      WF71124  11.165  17.577   1.507  0.4212 -0.3147 -0.1046
    1WF      WF71125  13.177   9.883   2.205 -0.0691  0.2737 -0.2418
    1WF      WF71126   2.838   9.244   6.637 -0.0692 -0.1205  0.1560
    1WF      WF71127  10.641  22.110   0.007 -0.0265 -0.4003 -0.1058
    1WF      WF71128   6.636   6.242   3.338 -0.0187  0.3743 -0.1530
    1WF      WF71129   2.248  22.874   0.721  0.1376 -0.0760 -0.1085
    1WF      WF71130  24.320  19.688   8.002  0.0418  0.4787  0.1864
    1WF      WF71131   3.030  29.888   0.408 -0.0171 -0.3292 -0.0444
    1WF      WF71132  30.019   1.676   0.591 -0.1009 -0.0577  0.0878
    1WF      WF71133  28.634  15.317   9.181 -0.1146  0.0742  0.0264
    1WF      WF71134  28.520  21.356   0.679  0.1572  0.0771 -0.1659
    1WF      WF71135  13.357  13.763   0.406  0.1289 -0.0673 -0.0802
    1WF      WF71136  16.167   6.580   1.242  0.1591  0.0536 -0.0303
    1WF      WF71137   7.841   3.216   0.795 -0.1563  0.1290  0.0467
    1WF      WF71138  23.050   4.677   0.245  0.0204 -0.1850 -0.2396
    1WF      WF71139  19.709  15.764   7.706 -0.3585 -0.1976  0.4401
    1WF      WF71140   6.677  13.781   1.321  0.1323  0.0203  0.0025
    1WF      WF71141  18.496   5.202   2.061  0.0579  0.1742  0.1503
    1WF      WF71142  12.005   0.749   0.097  0.1387 -0.2659  0.0345
    1WF      WF71143  27.961  26.723   0.584 -0.0543  0.2000 -0.3172
    1WF      WF71144  14.538  11.789   1.792 -0.1614  0.1798 -0.3352
    1WF      WF71145  20.970  20.787   5.536  0.2628  0.1776 -0.1144
    1WF      WF71146  19.213  21.160   7.704  0.0783 -0.1601 -0.1976
    1WF      WF71147  12.504  23.882   6.125  0.1713 -0.0655 -0.3608
    1WF      WF71148   8.559   9.798   7.674 -0.0750 -0.0140  0.0319
    1WF      WF71149  17.454   0.313   0.568 -0.0767 -0.3082  0.1862
    1WF      WF71150  23.140   5.360   6.931  0.3006  0.0600 -0.0970
    1WF      WF71151   5.141  15.964   8.576 -0.1604  0.0845  0.0070
    1WF      WF71152  26.121  29.555   1.429  0.2086 -0.0623  0.2486
    1WF      WF71153   0.791  29.243   2.680 -0.0759  0.1376  0.0855
    1WF      WF71154  24.407  26.707   1.910  0.1396 -0.0890  0.3026
    1WF      WF71155   0.722   9.212   2.370 -0.2038 -0.0491 -0.1526
    1WF      WF71156  11.926  26.649   8.734 -0.1359 -0.0387 -0.3620
    1WF      WF71157   7.670  28.488   1.813 -0.0846 -0.2864 -0.0472
    1WF      WF71158   4.700  15.879   8.310 -0.1795 -0.2855 -0.1533
    1WF      WF71159  14.280  24.120   8.307 -0.0669  0.2522  0.0223
    1WF      WF71160  27.252  14.494   0.275 -0.2679  0.2272  0.0648
    1WF      WF71161  15.984   9.750   0.641  0.0868 -0.0830  0.1448
    1WF      WF71162   1.349   9.300   8.597 -0.1376  0.3032  0.0972
    1WF      WF71163  26.734  27.864   7.940  0.1238  0.0561 -0.0102
    1WF      WF71164  27.397  19.762   0.695 -0.0627  0.0586 -0.0356
    1WF      WF71165  14.610   9.176   7.007 -0.0884  0.0588 -0.2076
    1WF      WF71166   3.628  24.874   8.490  0.0389  0.1911 -0.0990
    1WF      WF71167  16.967  11.495   8.148  0.1964  0.1392 -0.1290
    1WF      WF71168  10.077  11.782   1.406 -0.0179 -0.0529  0.1412
    1WF      WF71169  11.152  15.636   8.654 -0.1412  0.2563  0.4324
    1WF      WF71170   2.063  29.513   9.031  0.2038  0.0704  0.0497
    1WF      WF71171  21.260  15.085   7.778 -0.2094  0.2174 -0.3420
    1WF      WF71172   3.190  29.840   0.935 -0.1316 -0.0095 -0.1010
    1WF      WF71173   2.655  13.622   8.100  0.2623 -0.0757 -0.2523
    1WF      WF71174  24.716  18.101   6.312 -0.0608 -0.2389 -0.2620
    1WF      WF71175  20.765  22.555   0.210  0.1926  0.1807 -0.0231
    1WF      WF71176   8.302  27.402   0.809  0.0167 -0.1271 -0.1485
    1WF      WF71177   6.583  28.402   2.384  0.0218  0.2094  0.3625
    1WF      WF71178  19.262   7.336   9.134  0.1403  0.0843 -0.1520
    1WF      WF71179  27.660  10.954   0.208 -0.2028  0.4147  0.2212
    1WF      WF71180  20.966  21.169   0.098  0.0019 -0.3835 -0.3941
    1WF      WF71181  13.714   8.231   0.690  0.0821  0.1162 -0.0431
    1WF      WF71182   0.494  18.417   7.942 -0.0551 -0.0062 -0.1437
    1WF      WF71183  16.205   6.902   7.494  0.1208 -0.1405  0.2178
    1WF      WF71184   7.994   1.207   1.737  0.3302 -0.2284 -0.0591
    1WF      WF71185   2.144  28.973   9.026 -0.2408  0.0918 -0.0402
    1ION     NA71186  24.988  17.806   1.977 -0.0418 -0.1001  0.4138
    1ION     NA71187  28.295  18.145   1.423 -0.3720 -0.1869  0.1465
    1ION     NA71188  16.053   4.956   5.725 -0.2606 -0.0603 -0.3132
    1ION     NA71189  22.649   7.315   7.594  0.0104 -0.1593  0.0744
    1ION     NA71190  14.638  11.480   8.347 -0.0477  0.0843  0.0095
    1ION     NA71191  20.679  20.799   8.144  0.0891 -0.3007 -0.1811
    1ION     NA71192   0.918  29.806   0.805  0.1246 -0.0663 -0.0095
    1ION     NA71193  24.515  23.863   3.024  0.1226 -0.0820 -0.0093
    1ION     NA71194  24.864   5.933   8.099  0.0501 -0.5769  0.2452
    1ION     NA71195   1.157  26.345   1.882  0.0227 -0.0410 -0.2879
    1ION     NA71196   7.342  10.943   1.674 -0.1122  0.1654  0.0447
    1ION     NA71197   1.843  15.479   1.972 -0.2545  0.0026  0.1498
    1ION     NA71198  26.313  23.017   1.555 -0.1229 -0.1748 -0.1379
    1ION     NA71199   4.295  13.022   6.456 -0.1630 -0.1429  0.1799
    1ION     NA71200  27.264  11.767   0.490  0.2338  0.0608 -0.1855
    1ION     NA71201   8.425   0.871   3.007  0.1873 -0.0105  0.0673
    1ION     NA71202   2.026  28.689   0.788  0.1503  0.1002 -0.1723
    1ION     NA71203  22.939  17.378   1.702  0.0874  0.1299  0.0655
    1ION     NA71204  16.002   7.233   7.163  0.1599 -0.2785 -0.1043
    1ION     NA71205  12.902  22.567   7.248 -0.0093 -0.1511  0.1844
    1ION     NA71206  28.078  13.606   6.569  0.2557 -0.1357  0.0692
    1ION     NA71207   1.631  17.803   6.054  0.0981  0.0053  0.0415
    1ION     NA71208  29.728  22.517   0.886  0.0162  0.0379  0.0739
    1ION     NA71209  17.793   7.635   5.545 -0.2534  0.2700 -0.0327
    1ION     NA71210  14.511   6.915   2.184 -0.0341  0.3818 -0.0838
    1ION     NA71211  24.897   6.883   1.986  0.1337  0.2446 -0.0889
    1ION     NA71212   9.402  29.081   7.108  0.1729  0.0044  0.2707
    1ION     NA71213   7.851  18.470   2.228 -0.2311  0.2506 -0.0096
    1ION     NA71214  29.672   1.130   3.298  0.0042 -0.0226  0.0423
    1ION     NA71215  22.733  20.811   7.374  0.1334 -0.1922 -0.3459
    1ION     NA71216  11.562  24.539   8.025  0.2517 -0.0052 -0.4303
    1ION     NA71217   8.113  22.374   7.025  0.2872 -0.1850 -0.2253
    1ION     NA71218  11.141  23.013   2.639  0.1658 -0.0912  0.1056
    1ION     NA71219  21.610  16.353   0.606  0.3134  0.2055  0.0794
    1ION     NA71220  30.341  16.303   2.297 -0.0533 -0.0351  0.0827
    1ION     NA71221  28.385   9.967   8.415  0.2954 -0.1133 -0.0622
    1ION     NA71222  26.345  29.609   2.698  0.0931  0.0045  0.0414
    1ION     NA71223  27.994   3.159   2.402 -0.0148  0.0899 -0.1817
    1ION     NA71224   5.831  26.569   2.777 -0.4081  0.3326  0.1351
    1ION     NA71225   9.784  20.929   9.062 -0.1712 -0.2356 -0.0022
    1ION     NA71226  18.110  23.497   1.565 -0.0463  0.0072  0.2449
    1ION     NA71227  19.675   6.820   1.294  0.2048 -0.0915  0.6131
    1ION     NA71228  13.647  15.397   6.769  0.0172  0.0736  0.1204
    1ION     NA71229  22.159   7.791   2.657 -0.0436  0.2646  0.2010
    1ION     NA71230  11.908  20.047   1.011 -0.0189 -0.1053 -0.3578
    1ION     NA71231  19.315  25.013   0.978  0.1376 -0.0715 -0.0716
    1ION     NA71232  26.402  21.764   2.038 -0.1079 -0.0872  0.1169
    1ION     NA71233  24.669   3.348   6.875  0.1049 -0.0367 -0.3476
    1ION     NA71234  29.102  23.641   0.329 -0.0742  0.2535  0.1143
    1ION     NA71235  11.495  21.581   2.307  0.1749 -0.2335  0.0963
    1ION     NA71236  20.728  18.712   6.921  0.1895  0.1744 -0.2702
    1ION     NA71237  23.339  27.053   8.414 -0.1375 -0.0189 -0.0744
    1ION     NA71238   1.118   2.307   2.133  0.3056 -0.0987 -0.0587
    1ION     NA71239  26.707  22.481   2.073 -0.0135  0.3004  0.0297
    1ION     NA71240   9.228  29.653   8.626  0.1131 -0.2461 -0.2846
    1ION     NA71241  28.135  24.931   0.447  0.1315 -0.3152  0.3507
    1ION     NA71242  21.415  24.359   1.397 -0.0230 -0.0827 -0.0537
    1ION     NA71243   9.829  13.998   1.842 -0.3692 -0.3161  0.3349
    1ION     NA71244  17.923   5.212   8.635  0.1533  0.2725  0.3066
    1ION     NA71245  11.237   3.762   6.455  0.1073  0.0519  0.0351
    1ION     NA71246  16.304  18.274   1.988  0.2075 -0.2681  0.0712
    1ION     NA71247  30.083  17.210   8.350 -0.1179  0.0398  0.1927
    1ION     NA71248   2.564  28.932   3.543  0.0051  0.0905 -0.1873
    1ION     NA71249  25.505  20.559   2.347  0.0907 -0.1111  0.1889
    1ION     NA71250  23.578   5.154   2.181  0.0245 -0.1048 -0.0159
    1ION     NA71251  18.608   5.595   1.232  0.0933 -0.1328  0.0214
    1ION     NA71252  12.432   2.742   2.768  0.1032  0.5606 -0.1060
    1ION     NA71253  20.600  11.511   9.265 -0.1913 -0.0415  0.3234
    1ION     NA71254   4.575  20.999   6.407 -0.0504 -0.1998  0.1204
    1ION     NA71255   0.546  19.516   1.719  0.0876 -0.2060 -0.0631
    1ION     NA71256  19.285  27.691   7.646  0.1436 -0.1551 -0.0012
    1ION     NA71257   4.873   3.533   7.233  0.1200  0.2508  0.0370
    1ION     NA71258   0.032  23.325   2.528  0.0165 -0.0744 -0.2855
    1ION     NA71259   1.975  17.358   7.333 -0.0595  0.3058  0.0459
    1ION     NA71260  21.265  20.429   8.733 -0.1051 -0.1945  0.0442
    1ION     NA71261  26.290   0.748   6.912 -0.1251  0.0438  0.0444
    1ION     NA71262  13.452  21.238   2.284  0.0682 -0.0243  0.0958
    1ION     NA71263   5.105  11.654   2.221 -0.3047  0.0652 -0.1304
    1ION     NA71264   7.929  14.375   8.944 -0.0613 -0.0250  0.1777
    1ION     NA71265  10.908   7.211   0.661 -0.1374  0.2075 -0.1216
    1ION     NA71266  16.963  10.633   2.884  0.2820  0.2255  0.0139
    1ION     NA71267   4.806  15.989   1.906 -0.1821 -0.1749  0.0502
    1ION     NA71268   4.759   4.876   0.454  0.1633 -0.2130 -0.1039
    1ION     NA71269  10.561  26.439   6.040 -0.4353  0.0671 -0.2146
    1ION     NA71270  25.529   4.526   3.760 -0.0475  0.1653  0.1855
    1ION     NA71271  30.019  14.265   7.839  0.2169  0.2768  0.4213
    1ION     NA71272  14.084   2.543   2.033  0.1072  0.4365 -0.2761
    1ION     NA71273   1.458   9.705   6.983 -0.2605  0.0599 -0.1006
    1ION     NA71274  23.844   2.873   6.927 -0.1185  0.1134  0.1465
    1ION     NA71275  26.421   9.496   6.195  0.1755 -0.0692  0.2813
    1ION     NA71276  23.583  24.985   6.382  0.0887 -0.0037  0.1213
    1ION     NA71277  22.479  28.473   0.938  0.0772  0.0757 -0.2613
    1ION     NA71278   9.429  28.895   3.240  0.2838 -0.0976 -0.0358
    1ION     NA71279  29.265   8.281   2.730 -0.0925 -0.1730  0.0152
    1ION     NA71280   5.448  16.386   6.449 -0.0729  0.0492 -0.0492
    1ION     NA71281  19.786  28.144   3.274 -0.1908 -0.0589  0.2018
    1ION     NA71282  21.629   2.825   7.066 -0.0243  0.3108 -0.2153
    1ION     NA71283  17.100   6.905   7.619  0.2349 -0.0364  0.1385
    1ION     NA71284  22.077   7.132   0.427 -0.0630 -0.0797  0.4132
    1ION     NA71285   4.207  14.746   6.387  0.0896 -0.1463  0.0198
    1ION     NA71286   6.121   9.628   7.661 -0.0867  0.2797  0.0026
    1ION     NA71287   6.955  17.577   5.684  0.2196  0.0536  0.1485
    1ION     NA71288   9.164   5.266   2.707  0.1622  0.3422  0.1029
    1ION     NA71289  27.908  26.707   3.142 -0.0148 -0.2120  0.1848
    1ION     NA71290  22.909   6.441   1.714 -0.4606  0.1746  0.3007
    1ION     NA71291   9.681  14.358   7.211 -0.0696 -0.1700  0.0143
    1ION     NA71292  14.187   8.690   2.320  0.0140 -0.0478 -0.2435
    1ION     NA71293  24.375   9.189   8.292  0.0791  0.1174  0.0344
    1ION     NA71294  27.156   3.172   2.485 -0.1550  0.1527 -0.0685
    1ION     NA71295  28.351   7.532   6.689  0.0239  0.0051  0.2358
    1ION     NA71296  26.199  17.792   0.448 -0.0258 -0.0775  0.1819
    1ION     NA71297   7.312  23.648   2.477  0.1444  0.1372 -0.1319
    1ION     NA71298   9.676  14.797   8.698  0.0207  0.0401 -0.0940
    1ION     NA71299   6.655  15.081   1.208  0.0116  0.2238 -0.0832
    1ION     NA71300   8.944  27.618   8.877 -0.1703 -0.1511  0.2538
    1ION     NA71301  17.303  20.146   7.463 -0.0315 -0.1015  0.0180
    1ION     NA71302  10.874  11.262   0.059  0.0646 -0.2034 -0.0403
    1ION     NA71303  10.266   7.738   7.813  0.2989 -0.0013 -0.2948
    1ION     NA71304   2.649  29.739   0.097  0.0937 -0.0604 -0.2005
    1ION     NA71305   2.273  22.155   9.239 -0.1547 -0.2899 -0.1088
    1ION     NA71306  24.383  29.056   3.270  0.0714  0.0496 -0.1091
    1ION     NA71307   6.735  17.661   7.816 -0.1004 -0.2012 -0.1081
    1ION     NA71308  19.538   7.634   0.270  0.1814 -0.0693 -0.2121
    1ION     NA71309  27.897  25.605   0.433  0.0050  0.0422  0.2344
    1ION     NA71310  25.821  17.475   6.064 -0.0561  0.1992  0.0451
    1ION     NA71311  24.448  18.604   1.883  0.1048  0.2775 -0.1049
    1ION     NA71312   5.954   7.717   8.703 -0.1666  0.0235  0.0157
    1ION     NA71313  26.938   3.003   1.385 -0.1236  0.0757 -0.0818
    1ION     NA71314  13.835  29.406   1.634 -0.0232  0.0210  0.1131
    1ION     NA71315  29.700  17.758   6.197 -0.1286  0.0933 -0.1980
    1ION     NA71316  15.552  14.578   7.618 -0.3209 -0.2561 -0.1216
    1ION     NA71317  11.562  19.263   5.787 -0.1951 -0.0019  0.0445
    1ION     NA71318   1.474  18.400   8.915 -0.4155 -0.0378 -0.3047
    1ION     NA71319  22.179   7.247   6.955  0.0676  0.0184 -0.0894
    1ION     NA71320   4.712  28.945   7.272  0.0286 -0.1519 -0.0019
    1ION     NA71321  14.471  12.264   2.416 -0.1471 -0.1755 -0.1115
    1ION     NA71322  12.826  22.516   0.960 -0.0984  0.1390 -0.0632
    1ION     NA71323  19.960   8.382   2.152  0.0711  0.0424  0.0024
    1ION     NA71324   8.904   2.884   6.719 -0.1190 -0.0460 -0.3022
    1ION     NA71325  16.736   0.292   8.796 -0.1880 -0.0674 -0.1600
    1ION     NA71326   6.373  17.087   8.839 -0.1473  0.3084  0.2038
    1ION     NA71327   4.815  27.164   6.646 -0.2072  0.0058 -0.0396
    1ION     NA71328  28.232  21.551   8.871 -0.0453  0.0939  0.0215
    1ION     NA71329  14.825  16.918   6.346  0.2502 -0.0894  0.0465
    1ION     NA71330  25.335   6.459   1.186 -0.0147 -0.1859 -0.2507
    1ION     NA71331   4.440  17.585   8.865  0.0102  0.1227  0.1056
    1ION     NA71332  28.427  19.531   0.914 -0.4629 -0.0927  0.3220
    1ION     NA71333  21.097   6.912   7.571 -0.1518 -0.2054  0.0651
    1ION     NA71334  16.846   7.707   5.570 -0.0060 -0.0057 -0.0345
    1ION     NA71335  26.758  25.322   6.600  0.1535 -0.3747  0.2734
    1ION     NA71336  23.005  26.256   1.704 -0.0164  0.0383 -0.1290
    1ION     NA71337  20.266   3.348   1.957 -0.0480 -0.1621  0.2568
    1ION     NA71338  19.571   9.497   6.295 -0.2229  0.3916 -0.0490
    1ION     NA71339   9.047   1.216   1.130 -0.1466  0.0826 -0.4566
    1ION     NA71340  29.722  24.131   6.671  0.1227 -0.3096  0.4791
    1ION     NA71341  11.226   1.868   6.790  0.0775  0.0039 -0.0229
    1ION     NA71342  26.024   9.608   1.023  0.1833 -0.1146  0.1994
    1ION     NA71343  23.097  11.273   1.866  0.1420  0.0829  0.1617
    1ION     NA71344  29.646  30.006   7.315  0.2779  0.0234 -0.1415
    1ION     NA71345  11.790  29.200   9.062  0.2068  0.1651  0.0456
    1ION     NA71346  18.579  25.584   1.700  0.0497  0.0447  0.2268
    1ION     NA71347  24.132  23.758   7.586  0.1682 -0.0180  0.1036
    1ION     NA71348  10.068  28.296   3.338  0.0509 -0.0403  0.0983
    1ION     NA71349  25.873  10.449   8.735 -0.0110  0.1534  0.0527
    1ION     NA71350  16.219   2.306   0.145  0.0431 -0.0005  0.0831
    1ION     NA71351   6.678  11.218   6.810 -0.1115  0.1040 -0.1511
    1ION     NA71352  19.427  26.635   0.144 -0.5473  0.2252 -0.1237
    1ION     NA71353  23.428  13.406   7.412 -0.4265  0.0986  0.0784
    1ION     NA71354  25.769  19.892   1.727 -0.1068 -0.1509  0.0604
    1ION     NA71355  25.471  18.473   1.755 -0.0602 -0.2364 -0.0331
    1ION     NA71356  13.849   3.337   2.834  0.2404  0.0764 -0.2646
    1ION     NA71357  16.108  11.473   7.038 -0.2315  0.1921 -0.0336
    1ION     NA71358   6.097  15.482   2.196 -0.1634 -0.1517  0.0124
    1ION     NA71359  18.590  10.325   6.084 -0.1212 -0.0565 -0.0246
    1ION     NA71360  21.668  24.354   6.659 -0.0282  0.1431 -0.1797
    1ION     NA71361   3.083  25.420   8.431  0.4621 -0.0567 -0.1080
    1ION     NA71362  11.597  29.810   6.639 -0.1751  0.3237 -0.2370
    1ION     NA71363  11.042  15.267   1.441 -0.3892  0.3426  0.1519
    1ION     NA71364  19.650  22.248   6.394  0.0141  0.3156  0.0548
    1ION     NA71365  25.669   0.514   7.999 -0.2037 -0.0606  0.0795
    1ION     NA71366  14.164  24.769   2.919 -0.3757 -0.0752  0.0309
    1ION     NA71367  21.253  10.370   1.460  0.0473 -0.0373  0.1308
    1ION     NA71368  28.422   3.766   8.646  0.2152 -0.0244  0.2616
    1ION     NA71369   2.064  27.306   0.372  0.1844 -0.0698  0.0144
    1ION     NA71370   9.838  20.047   2.230  0.1652  0.0691  0.3973
    1ION     NA71371  14.190  26.378   9.222  0.0136  0.1465  0.0864
    1ION     NA71372  24.872  15.643   0.597  0.0589 -0.1765  0.1238
    1ION     NA71373  28.861  22.335   6.918 -0.1320 -0.0088 -0.1140
    1ION     NA71374  28.688  22.805   1.235 -0.0371  0.1613  0.0133
    1ION     NA71375  24.485   7.005   2.489  0.1083 -0.0275  0.5173
    1ION     NA71376  17.622  16.967   1.985 -0.1802  0.1891 -0.0856
    1ION     NA71377  14.167  25.503   3.019  0.2220 -0.0388  0.0661
    1ION     NA71378   2.769  27.344   8.249 -0.2593  0.2525 -0.0114
    1ION     NA71379   5.553  10.804   2.412  0.0694  0.1048 -0.0212
    1ION     NA71380  28.362   6.650   7.224 -0.1230  0.1653  0.0741
    1ION     NA71381   2.075  20.121   0.155  0.0903  0.1172 -0.2033
    1ION     NA71382  12.491  20.403   0.316  0.1521 -0.0263 -0.0917
    1ION     NA71383   5.382  11.577   1.002 -0.0259 -0.0696 -0.1531
    1ION     NA71384   5.310   3.582   0.131  0.1450  0.1425  0.0268
    1ION     NA71385  29.503   9.733   3.054 -0.1343  0.0368  0.3056
    1ION     NA71386  27.744  11.408   1.134 -0.2244  0.0460  0.0619
    1ION     NA71387  29.260  19.157   8.770 -0.2121  0.1233 -0.2412
    1ION     NA71388  19.963  11.903   6.341 -0.0384  0.0954 -0.0510
    1ION     NA71389  19.632   0.493   1.286  0.1431  0.1451  0.0385
    1ION     NA71390  10.013  11.209   7.944 -0.1439  0.2071 -0.3689
    1ION     NA71391  29.784   7.978   7.932 -0.1405  0.1592 -0.2125
    1ION     NA71392  25.346   2.084   3.849 -0.1749 -0.0771  0.0113
    1ION     NA71393   1.149   6.268   2.089 -0.3366 -0.0075  0.1831
    1ION     NA71394  16.902  25.328   9.203 -0.0875  0.1062 -0.1503
    1ION     NA71395   8.199   3.197   2.043  0.3041  0.0532 -0.0453
    1ION     NA71396  27.482  26.656   9.130  0.0141 -0.0079  0.1264
    1ION     NA71397  16.877  26.087   7.545  0.0054  0.0482 -0.4292
    1ION     NA71398  12.959  14.780   2.944 -0.0033 -0.0592 -0.2009
    1ION     NA71399  18.141   7.219   0.966 -0.4469 -0.0419  0.0564
    1ION     NA71400  21.854  17.130   0.330 -0.0956 -0.3588 -0.0123
    1ION     NA71401  16.089  11.658   6.554 -0.1108 -0.1345 -0.1254
    1ION     NA71402  21.635  14.612   8.081 -0.0653  0.2860  0.0731
    1ION     NA71403  25.892  25.352   0.796  0.2744  0.3185 -0.1106
    1ION     NA71404   2.129  25.069   2.342  0.1295  0.1132 -0.1061
    1ION     NA71405  14.319  19.317   6.051  0.0077  0.0692  0.1066
    1ION     NA71406   8.317  11.189   8.309  0.1493  0.0939  0.3312
    1ION     NA71407   9.117   1.433   2.007 -0.1041  0.6124 -0.0999
    1ION     NA71408   9.548   4.974   1.685 -0.0017  0.3867  0.3286
    1ION     NA71409  19.477   5.628   6.850  0.1173 -0.1400  0.0609
    1ION     NA71410  21.593  28.086   1.119 -0.1163  0.0677  0.2813
    1ION     NA71411  26.470  10.212   2.607 -0.2711  0.1374 -0.4481
    1ION     NA71412   5.261  18.868   6.707  0.0142  0.1770  0.0468
    1ION     NA71413   4.681  26.078   0.168 -0.3886 -0.1207  0.0498
    1ION     NA71414   9.927  13.761   1.011  0.2569 -0.2835 -0.0442
    1ION     NA71415   1.738   0.137   8.882  0.0244  0.0123  0.1897
    1ION     NA71416   7.344  25.551   6.303 -0.0513  0.3796  0.0602
    1ION     NA71417  22.186   6.836   6.165  0.0304  0.0829  0.1188
    1ION     NA71418  17.873  10.956   8.090 -0.1598 -0.0639 -0.3173
    1ION     NA71419  29.624   7.048   1.748  0.2557  0.0712  0.0576
    1ION     NA71420   6.741  14.244   1.081 -0.0982 -0.0192  0.0436
    1ION     NA71421   9.204   3.887   0.528  0.2479 -0.2986 -0.0176
    1ION     NA71422  11.260  25.134   1.544  0.1410 -0.1996 -0.0100
    1ION     NA71423   5.796   7.539   1.793  0.1791 -0.2637 -0.0569
    1ION     NA71424  19.170  15.660   6.321  0.1586  0.1839  0.1497
    1ION     NA71425   6.851  11.906   8.853  0.0650 -0.0814  0.1789
    1ION     NA71426   5.111   8.390   8.592  0.1383  0.1039 -0.1693
    1ION     NA71427   3.744  17.998   8.308  0.0733  0.0656  0.1916
    1ION     NA71428  22.548   2.659   9.119  0.0290  0.4341 -0.1982
    1ION     NA71429  20.392  11.688   7.858 -0.0874  0.0470  0.2332
    1ION     NA71430  19.873   2.342   2.017 -0.1357 -0.0864  0.1673
    1ION     NA71431   3.965  20.849   1.604 -0.2646 -0.1746  0.1195
    1ION     NA71432  22.324   8.028   6.858 -0.0569 -0.0592  0.2898
    1ION     NA71433   5.475   2.501   3.676 -0.0661 -0.3179 -0.0415
    1ION     NA71434  14.965   2.913   7.319  0.1619  0.0324 -0.3131
    1ION     NA71435  19.522   6.874   6.694  0.2580  0.1085  0.1255
    1ION     NA71436  30.006  19.785   2.079  0.2193  0.2959  0.2574
    1ION     NA71437  28.449  21.851   0.379 -0.1517 -0.2048 -0.1330
    1ION     NA71438  13.485  24.467   6.420  0.1286  0.3865  0.2169
    1ION     NA71439  23.947   8.021   7.921  0.1807  0.0936 -0.2102
    1ION     NA71440  22.694  26.346   7.613  0.0011  0.2054 -0.1725
    1ION     NA71441   1.506   6.275   6.547  0.1985 -0.0414 -0.4874
    1ION     NA71442  27.305  14.097   2.081 -0.1585 -0.1256 -0.0426
    1ION     NA71443  27.162  26.350   1.473 -0.0251 -0.0355  0.1507
    1ION     NA71444  22.344  21.988   7.857 -0.0209  0.0721 -0.0605
    1ION     NA71445   9.096   1.236   0.190  0.1620 -0.2184  0.0269
    1ION     NA71446  12.887   0.207   2.656 -0.3462  0.2110  0.0961
    1ION     NA71447  16.997  22.310   6.425  0.0911  0.2169 -0.2594
    1ION     NA71448  10.385   9.691   8.008  0.1942 -0.0602 -0.0561
    1ION     NA71449   8.400  12.909   2.988  0.1259  0.0781  0.0107
    1ION     NA71450  20.367   1.733   2.504  0.0505  0.1214 -0.1285
    1ION     NA71451  10.082  16.037   6.360 -0.1956  0.1702 -0.0799
    1ION     NA71452  23.082  25.522   2.232 -0.3420 -0.1281  0.4343
    1ION     NA71453  14.239   9.470   6.992 -0.2731 -0.2041  0.2673
    1ION     NA71454  18.154  11.406   2.977  0.1172 -0.2509  0.1225
    1ION     NA71455  21.284   4.636   6.483 -0.0034 -0.1216 -0.2073
    1ION     NA71456  15.076  10.886   2.844  0.2165 -0.0958  0.0259
    1ION     NA71457  17.217  30.011   1.423  0.1157  0.0597  0.0659
    1ION     NA71458  10.673  17.841   1.322 -0.0177  0.2269 -0.0499
    1ION     NA71459  19.271  20.807   0.966 -0.2522 -0.0495 -0.2117
    1ION     NA71460  13.000   0.713   9.100  0.4262 -0.1199 -0.0288
    1ION     NA71461  12.013  15.319   2.691  0.1002 -0.1325  0.1323
    1ION     NA71462  16.361   6.630   0.788  0.0678  0.1420 -0.0274
    1ION     NA71463   1.013  17.233   6.192 -0.0781  0.0791  0.0884
    1ION     NA71464   2.734  26.377   6.898 -0.5616 -0.1263 -0.1640
    1ION     NA71465  10.973  13.601   1.686  0.0434  0.1606  0.1559
    1ION     NA71466   3.284  19.994   7.993 -0.0176  0.1963  0.2168
    1ION     NA71467  27.486  11.580   8.543 -0.0834 -0.0717 -0.2981
    1ION     NA71468  28.196   2.722   3.667 -0.0291  0.2367  0.1045
    1ION     NA71469  21.725  18.063   2.341  0.0392  0.0468 -0.0753
    1ION     NA71470   6.919  22.500   6.349 -0.1021  0.2063  0.0358
    1ION     NA71471   3.946  16.618   1.916 -0.1554  0.1642  0.2661
    1ION     NA71472  19.440  23.048   8.485 -0.1293 -0.0420 -0.1680
    1ION     NA71473  26.457  28.302   8.060  0.3714 -0.1092 -0.1488
    1ION     NA71474  27.699   7.325   0.804 -0.0254 -0.0100  0.1055
    1ION     NA71475  12.604   5.670   9.135 -0.0670 -0.0235 -0.0034
    1ION     NA71476   8.256  17.916   7.495  0.0739  0.0433  0.0140
    1ION     NA71477   5.407   6.880   1.048 -0.1905 -0.0379  0.3061
    1ION     NA71478  24.732  21.635   7.752 -0.0347  0.1324  0.2918
    1ION     NA71479  22.185  25.396   1.806 -0.0334  0.0821 -0.1880
    1ION     NA71480  18.991  20.294   2.388  0.3409 -0.1172  0.2088
    1ION     NA71481  25.076  21.220   6.147  0.0567 -0.0163 -0.0854
    1ION     NA71482  10.756   4.074   1.527  0.0713  0.0472 -0.0879
    1ION     NA71483  26.671  18.111   8.696  0.0994  0.2525  0.1477
    1ION     NA71484   8.053  12.181   7.248 -0.0418 -0.0708  0.0371
    1ION     NA71485  17.128   1.726   7.330  0.4316  0.1011 -0.2624
    1ION     NA71486  10.118   5.299   6.315 -0.0451 -0.1147 -0.0133
    1ION     NA71487  18.826   3.292   1.803  0.0425 -0.0328  0.1415
    1ION     NA71488   4.330  11.236   6.259  0.0694  0.2113 -0.0727
    1ION     NA71489  25.923  19.670   7.677  0.1668 -0.2389 -0.0145
    1ION     NA71490  10.680  15.201   3.118  0.0373  0.1559 -0.3109
    1ION     NA71491  27.056  14.932   0.238  0.0128 -0.0414 -0.1439
    1ION     NA71492  24.645   5.000   1.474  0.1998  0.1349  0.0877
    1ION     NA71493  17.049  20.132   2.402 -0.3151 -0.1605  0.2955
    1ION     NA71494   9.117  20.676   2.365 -0.0528 -0.4298  0.2523
    1ION     NA71495   0.221   1.315   3.473  0.1910  0.1299 -0.1127
    1ION     NA71496  28.551  14.559   7.741 -0.1379 -0.0460 -0.1909
    1ION     NA71497  25.033  10.983   8.418  0.2055  0.1166 -0.1792
    1ION     NA71498  25.212  11.223   7.555 -0.0005  0.0362  0.1531
    1ION     NA71499  19.363  18.413   5.515  0.2954 -0.0140 -0.1286
    1ION     NA71500  14.794  16.393   0.500 -0.1878 -0.0944 -0.5028
    1ION     NA71501  26.260  24.042   8.359 -0.1099  0.2234 -0.0316
    1ION     NA71502   3.674  27.937   0.831 -0.3082  0.3860  0.2518
    1ION     NA71503   9.565  10.510   2.949 -0.3120 -0.3353 -0.1773
    1ION     NA71504  12.496  25.879   8.908  0.3284  0.1179 -0.2323
    1ION     NA71505   6.921  11.955   1.603  0.1682 -0.0899 -0.0098
    1ION     NA71506  23.691  20.410   5.672  0.0791  0.0810  0.0094
    1ION     NA71507   9.179  20.318   7.856 -0.1690 -0.2769 -0.3194
    1ION     NA71508   8.766   7.302   2.938 -0.0070 -0.2395  0.1770
    1ION     NA71509  10.122  24.113   2.336  0.2607  0.0966  0.2005
    1ION     NA71510  28.434  27.851   0.480  0.1434  0.0946 -0.1357
    1ION     NA71511  22.009  20.596   2.088  0.0661  0.0392  0.0660
    1ION     NA71512   5.036   4.608   8.591 -0.1680 -0.0312  0.4165
    1ION     NA71513  26.065  27.014   0.180  0.1098  0.2485 -0.0247
    1ION     NA71514  25.155  12.335   2.219 -0.1016  0.1195 -0.0220
    1ION     NA71515  17.684  21.053   2.542 -0.2680 -0.0100 -0.1291
    1ION     NA71516   9.292  10.493   0.276  0.0114  0.0570 -0.0685
    1ION     NA71517  19.279   5.607   2.702 -0.0182  0.1924 -0.0240
    1ION     NA71518   6.740   6.779   3.146  0.1062  0.0933  0.0837
    1ION     NA71519  24.872   0.870   1.965 -0.0969 -0.1069 -0.1502
    1ION     NA71520  24.319  16.245   5.950  0.1418 -0.2850 -0.0246
    1ION     NA71521  28.330  28.603   2.518  0.0125 -0.1393 -0.2379
    1ION     NA71522  15.104  23.592   6.834  0.1144 -0.0979  0.2921
    1ION     NA71523  27.331  26.485   6.952  0.3531  0.1943  0.1736
    1ION     NA71524  17.714   4.668   0.461 -0.1886  0.0378 -0.1814
    1ION     NA71525   3.026  24.058   2.798  0.3356 -0.0084  0.1790
    1ION     NA71526  21.664  16.580   8.060 -0.1923 -0.1953 -0.2708
    1ION     NA71527  16.395  15.976   1.721 -0.0049  0.0209  0.1495
    1ION     NA71528   8.376   0.155   7.041 -0.1331  0.0443 -0.0315
    1ION     NA71529   5.967   4.812   1.319 -0.0109  0.1495 -0.1117
    1ION     NA71530   1.207   6.987   7.790 -0.0298 -0.5496  0.0084
    1ION     NA71531   5.273  23.609   2.454 -0.2857 -0.2608  0.0225
    1ION     NA71532   2.205   9.141   2.588 -0.1211 -0.2083 -0.2184
    1ION     NA71533   1.438  12.257   1.940  0.0837  0.1064 -0.3615
    1ION     NA71534  11.802  17.087   6.531  0.1492 -0.0469  0.1362
    1ION     NA71535  27.849  12.875   6.583 -0.0829 -0.3810 -0.2187
    1ION     NA71536   1.626  29.291   0.027  0.5099  0.0839 -0.1710
    1ION     NA71537   7.264  10.799   8.116 -0.0922  0.0142  0.0949
    1ION     NA71538   2.026  17.536   8.372 -0.1057 -0.1198 -0.0052
    1ION     NA71539   8.277  27.998   2.000 -0.0864 -0.0679  0.2962
    1ION     NA71540  14.782  10.028   1.101 -0.3586 -0.2527 -0.1847
    1ION     NA71541  23.431   0.860   7.854 -0.0855 -0.0257  0.1126
    1ION     NA71542   3.054  27.850   9.044  0.0392 -0.1193  0.0702
    1ION     NA71543  28.151  23.547   0.260  0.1089  0.1687  0.0555
    1ION     NA71544  13.852  23.480   8.506  0.1633 -0.0816 -0.1526
    1ION     NA71545  19.389  10.618   1.438  0.0337 -0.0337  0.2154
    1ION     NA71546  19.434  14.477   7.670  0.2780 -0.0091  0.0210
    1ION     NA71547  22.041  10.449   8.427 -0.1085 -0.4107  0.0957
    1ION     NA71548  11.771  10.011   1.397 -0.0800  0.3010 -0.4402
    1ION     NA71549   7.496  23.203   7.452 -0.1908 -0.1001 -0.2656
    1ION     NA71550  11.031  14.680   0.732 -0.2355 -0.0872 -0.1692
    1ION     NA71551   0.390  10.389   2.296 -0.2128  0.0652 -0.1076
    1ION     NA71552  15.579  30.065   3.223  0.1747 -0.4076  0.5590
    1ION     NA71553   2.768   0.360   1.526 -0.2344 -0.1436  0.2444
    1ION     NA71554  19.918   6.686   9.114 -0.1706 -0.1846 -0.3833
    1ION     NA71555  12.225   8.200   6.784 -0.4036  0.0089  0.1138
    1ION     NA71556  24.817  10.910   5.748  0.2756  0.0661  0.0738
    1ION     NA71557  12.498  26.607   6.395 -0.3066 -0.0462  0.1866
    1ION     NA71558  24.076   4.278   1.126 -0.0810 -0.1120 -0.1156
    1ION     NA71559  27.668   8.875   6.556  0.1366 -0.1027  0.0701
    1ION     NA71560  12.619   2.064   3.066  0.1322 -0.3799 -0.1331
    1ION     NA71561  27.996  17.888   8.731  0.3771  0.0853 -0.0510
    1ION     NA71562  13.444  26.155   6.834 -0.1396 -0.1219  0.0714
    1ION     NA71563   7.073  19.725   7.220 -0.1006  0.1604 -0.0725
    1ION     NA71564  12.715  20.015   5.661 -0.0425  0.2662 -0.2713
    1ION     NA71565   1.182  22.818   0.466  0.1337 -0.0777  0.2773
    1ION     NA71566  21.614  10.267   6.110 -0.0230 -0.3287  0.1376
    1ION     NA71567   8.956  10.476   8.103 -0.1219  0.2562 -0.0141
    1ION     NA71568   6.675   5.590   2.714  0.1157 -0.0588  0.0037
    1ION     NA71569  29.870  26.356   6.719  0.2859  0.0205 -0.0127
    1ION     NA71570  26.765   3.078   9.168 -0.1945  0.3054  0.2010
    1ION     NA71571  21.271  24.164   0.241 -0.1354  0.2128  0.0453
    1ION     NA71572   9.359  15.336   0.958 -0.2990 -0.1119  0.2050
    1ION     NA71573  27.351  23.979   0.256  0.3524 -0.2241  0.0792
    1ION     NA71574   7.331  15.924   6.077  0.3496  0.0240  0.1522
    1ION     NA71575   9.673  21.024   0.705 -0.1189 -0.0996  0.0233
    1ION     NA71576  15.361  28.193   8.958 -0.1871  0.0100  0.1588
    1ION     NA71577   0.930  11.530   6.656 -0.1366  0.1302  0.1329
    1ION     NA71578  22.475  17.762   1.041  0.1822 -0.3575 -0.1459
    1ION     NA71579  13.024  22.077   2.484  0.1641 -0.0902  0.1298
    1ION     NA71580   7.492  18.347   6.226 -0.1840  0.0309  0.1359
    1ION     NA71581   7.640   1.866   0.715  0.0814 -0.0483  0.0243
    1ION     NA71582  15.587  11.426   2.286  0.0241  0.0500  0.0039
    1ION     NA71583  19.591  12.274   2.537 -0.2056  0.2003 -0.3323
    1ION     NA71584   5.534  18.758   5.640 -0.0039 -0.0404 -0.0509
    1ION     NA71585   0.011   0.075   7.472  0.0899 -0.0913  0.0748
    1ION     NA71586  17.522   2.892   7.059  0.3078 -0.3716 -0.2334
    1ION     NA71587   0.783  22.289   6.670  0.1394  0.2787 -0.0256
    1ION     NA71588   4.453  19.950   8.704 -0.0046 -0.2085 -0.0409
    1ION     NA71589   6.424   6.839   6.807 -0.2259 -0.2313  0.2030
    1ION     NA71590  23.887  15.407   6.103  0.1491  0.3298 -0.3470
    1ION     NA71591  30.037  10.346   6.962 -0.0170 -0.1294 -0.1597
    1ION     NA71592  10.351  24.231   0.473  0.2078  0.1940 -0.3542
    1ION     NA71593  19.303  14.736   1.846  0.2172  0.2728 -0.2798
    1ION     NA71594  18.412  17.258   2.636  0.1460  0.1650  0.0623
    1ION     NA71595  14.591   6.028   8.138 -0.0432 -0.4563  0.0486
    1ION     NA71596  25.161   5.992   3.172 -0.0290  0.0464  0.2673
    1ION     NA71597  18.716  30.336   6.184 -0.1059  0.1559 -0.0250
    1ION     NA71598  21.366   4.441   0.678 -0.0507 -0.3181  0.2621
    1ION     NA71599  16.477  14.723   1.547  0.1777 -0.1754  0.3193
    1ION     NA71600  20.806   2.134   7.972 -0.2519 -0.1291  0.4371
    1ION     NA71601   2.195  23.514   2.793 -0.0889 -0.0431 -0.2423
    1ION     NA71602  24.300  27.051   2.353  0.1988  0.1272  0.3812
    1ION     NA71603  17.217   4.699   8.990  0.1253 -0.0550  0.3596
    1ION     NA71604  29.378  13.256   0.470  0.2625 -0.0770  0.0835
    1ION     NA71605  22.699   8.185   9.198 -0.2237 -0.1364  0.0011
    1ION     NA71606   5.748   4.365   2.235  0.0735  0.1579  0.0987
    1ION     NA71607   2.559  16.098   0.824  0.0436  0.1368 -0.1834
    1ION     CL71608  20.019   9.635   7.990 -0.0356 -0.3349  0.0218
    1ION     CL71609  14.260   9.081   7.375 -0.2015  0.5884  0.1796
    1ION     CL71610  26.491   3.133   1.225  0.2281  0.4397  0.1092
    1ION     CL71611  28.597   5.132   2.922  0.0480 -0.0075 -0.0714
    1ION     CL71612  11.824  24.939   7.983 -0.0047  0.0263 -0.1213
    1ION     CL71613  22.916   7.880   0.257 -0.3082 -0.0816  0.3743
    1ION     CL71614  21.229  23.610   1.585 -0.0915 -0.0635  0.0858
    1ION     CL71615  18.161  23.655   2.029  0.2076  0.0647 -0.0037
    1ION     CL71616  26.416   1.663   6.918 -0.1502  0.1396  0.0508
    1ION     CL71617  25.952   3.332   3.362 -0.0712  0.2394  0.1338
    1ION     CL71618  12.602  30.233   2.250 -0.0371 -0.1816  0.0523
    1ION     CL71619   6.025  16.565   9.138 -0.1299  0.1100  0.0157
    1ION     CL71620  16.682  11.576   7.529  0.0551 -0.1826 -0.1366
    1ION     CL71621  16.660   8.995   7.045 -0.0972  0.3059  0.4954
    1ION     CL71622  10.945  12.526   9.091  0.0010  0.0086  0.0526
    1ION     CL71623   7.805  29.797   8.433  0.0185  0.0700 -0.3978
    1ION     CL71624  11.916  29.674   9.086 -0.1702  0.2283  0.1837
    1ION     CL71625  13.828  23.916   8.256 -0.1313 -0.3313 -0.0159
    1ION     CL71626  25.940   9.985   1.414  0.3830 -0.1783 -0.1274
    1ION     CL71627  15.650  10.393   7.123 -0.2314  0.2082  0.3383
    1ION     CL71628  20.782   7.794   6.867  0.1744  0.1068 -0.1337
    1ION     CL71629   0.676   2.263   2.389  0.3490  0.1389  0.3027
    1ION     CL71630   2.232  19.755   9.072  0.0513 -0.2804  0.1291
    1ION     CL71631   6.530  15.518   0.975  0.0220  0.2312  0.0954
    1ION     CL71632   6.580  10.725   0.223  0.1755 -0.2507  0.2323
    1ION     CL71633   5.571  28.826   2.269 -0.1262  0.0336  0.2609
    1ION     CL71634  25.773  18.759   6.973 -0.1345  0.0077  0.0948
    1ION     CL71635   2.949   4.058   8.464 -0.0525  0.2345  0.0024
    1ION     CL71636  25.897  26.482   0.051  0.1733 -0.0721  0.1347
    1ION     CL71637  25.550   6.845   0.978  0.1100  0.0856 -0.2794
    1ION     CL71638   3.022  25.327   7.912 -0.0211 -0.1324  0.0336
    1ION     CL71639  19.378  23.600   8.455  0.1011 -0.1587  0.1539
    1ION     CL71640  22.666   9.190   7.129 -0.0905  0.1939 -0.0487
    1ION     CL71641  20.822  15.634   6.465  0.0020  0.1395 -0.0164
    1ION     CL71642  19.882  26.730   0.281  0.0074 -0.0122  0.2018
    1ION     CL71643   6.707  14.830   0.795 -0.0699 -0.1981 -0.0596
    1ION     CL71644   1.216   6.535   8.046  0.2679 -0.2523 -0.1885
    1ION     CL71645  25.059  16.932   6.766  0.0815 -0.2691  0.0187
    1ION     CL71646  19.220   6.704   8.442 -0.1020  0.1534 -0.0563
    1ION     CL71647  20.646  24.545   7.528 -0.2306  0.2706  0.0440
    1ION     CL71648   1.758   5.698   9.024 -0.1466 -0.0320 -0.0630
    1ION     CL71649   8.694  11.537   7.344 -0.2619  0.1855 -0.1115
    1ION     CL71650  27.688  23.636   0.460 -0.2610 -0.1146 -0.3486
    1ION     CL71651  14.913  30.150   0.954 -0.1368 -0.0840 -0.0429
    1ION     CL71652  23.246   1.678   2.240  0.0636  0.2693  0.1066
    1ION     CL71653  21.742   4.905   1.518  0.0480 -0.1084  0.1851
    1ION     CL71654  22.871  25.794   1.900  0.1855  0.1543 -0.1161
    1ION     CL71655  23.778  21.128   6.338 -0.1491  0.0130  0.1039
    1ION     CL71656  24.863   1.281   0.851 -0.0828 -0.0714  0.3104
    1ION     CL71657   0.053  25.096   7.860 -0.0882  0.1673 -0.0593
    1ION     CL71658  13.834  29.510   1.131  0.1125 -0.4756  0.0632
    1ION     CL71659  28.323   6.663   7.783 -0.0527  0.0132 -0.0594
    1ION     CL71660  14.534  28.877   0.353 -0.1484  0.0178  0.1977
    1ION     CL71661   9.988  25.712   8.272 -0.0020 -0.0884 -0.1075
    1ION     CL71662  26.040   8.761   1.824  0.2307 -0.0732 -0.0480
    1ION     CL71663   7.495  13.076   7.193  0.0100 -0.2842 -0.1024
    1ION     CL71664   6.654   6.360   7.575  0.0415 -0.1137  0.0341
    1ION     CL71665   6.499  10.967   8.065  0.1231  0.0064  0.2333
    1ION     CL71666   7.364  10.512   1.992  0.0760  0.1133  0.1952
    1ION     CL71667  24.589  10.642   7.182  0.2642 -0.0093  0.0186
    1ION     CL71668  10.884  25.341   1.856 -0.1440 -0.3428  0.1711
    1ION     CL71669   3.637   6.250   1.649 -0.0638 -0.2735 -0.0773
    1ION     CL71670  27.973  21.736   0.566  0.1514  0.0775 -0.0836
    1ION     CL71671  26.099  14.437   0.960 -0.2358  0.2445  0.1673
    1ION     CL71672  18.822  20.041   6.794 -0.2193  0.1269 -0.1382
    1ION     CL71673  27.656  10.888   1.349  0.0832  0.0101 -0.1548
    1ION     CL71674  25.457  10.666   8.404  0.3958 -0.1560  0.0891
    1ION     CL71675  11.375  15.030   0.568  0.0397  0.0512  0.2788
    1ION     CL71676  28.904   1.844   8.182 -0.1727 -0.1581  0.0498
    1ION     CL71677   8.034  17.435   7.563 -0.0147 -0.1107 -0.1223
    1ION     CL71678   3.040   4.454   2.124 -0.4079 -0.0666  0.1475
    1ION     CL71679   7.446  11.209   8.406  0.2038  0.0527  0.0397
    1ION     CL71680  19.334  19.627   8.554 -0.2159  0.1064 -0.2717
    1ION     CL71681   3.743  19.908   0.679 -0.2624  0.1522  0.1527
    1ION     CL71682  15.133   0.751   0.607 -0.1033  0.2888  0.0829
    1ION     CL71683  18.294  26.410   8.815 -0.2599  0.0385 -0.3815
    1ION     CL71684  24.477  12.131   6.787  0.2189  0.2639 -0.0416
    1ION     CL71685  18.916  24.505   8.387  0.0480  0.2792  0.0520
    1ION     CL71686  17.061  21.110   0.802 -0.1628 -0.2743 -0.0297
    1ION     CL71687   6.943   3.597   2.776 -0.2150 -0.0341 -0.0566
    1ION     CL71688  28.251  26.631   8.562 -0.2823 -0.0470  0.0599
    1ION     CL71689  13.968   3.048   2.054 -0.2777  0.0805 -0.1416
    1ION     CL71690   9.379   1.551   2.469 -0.2754  0.1670  0.2760
    1ION     CL71691  29.256   5.633   0.291  0.1072  0.2651 -0.0521
    1ION     CL71692  11.623  24.144   7.641  0.0065  0.0377  0.0415
    1ION     CL71693  24.412   4.574   1.645  0.2565  0.0064 -0.1346
    1ION     CL71694  19.299   8.927   7.728 -0.1397 -0.0116  0.1066
    1ION     CL71695  14.458  20.510   0.236  0.0575  0.1413 -0.1815
    1ION     CL71696   0.878  29.389   0.524  0.1310 -0.0707 -0.2028
    1ION     CL71697  18.624   5.070   1.352  0.2871 -0.0742  0.1006
    1ION     CL71698   4.956  18.429   7.257  0.0044 -0.3095 -0.1284
    1ION     CL71699  14.925   4.355   7.525  0.3333 -0.1150  0.0509
    1ION     CL71700  13.432   1.262   2.231 -0.0466  0.4635  0.0456
    1ION     CL71701  26.369  11.810   6.350  0.1656 -0.2200 -0.0463
    1ION     CL71702   5.589   2.349   1.874  0.0534  0.1107 -0.2589
    1ION     CL71703  23.491  13.572   2.342 -0.3399 -0.0454 -0.2431
    1ION     CL71704  29.039  22.755   2.526 -0.2026  0.2694  0.2585
    1ION     CL71705   9.684   6.359   1.441  0.2002  0.1459 -0.1163
    1ION     CL71706  23.628   4.119   1.047  0.1199  0.0104  0.0427
    1ION     CL71707  25.936  29.968   2.801  0.0020 -0.1705  0.2787
    1ION     CL71708  19.743   9.918   6.481  0.1398 -0.0924 -0.3438
    1ION     CL71709   4.771  19.559   8.870  0.3311 -0.2072 -0.0943
    1ION     CL71710   3.351  20.385   8.388 -0.0776 -0.0726 -0.1102
    1ION     CL71711  20.880   9.529   1.303 -0.0424  0.1128  0.0243
    1ION     CL71712  10.293  12.087   1.062 -0.0352 -0.2682  0.0169
    1ION     CL71713  20.949  18.791   7.378 -0.0596 -0.1438 -0.3795
    1ION     CL71714  24.718   0.453   1.720 -0.0408  0.0055 -0.1074
    1ION     CL71715  19.130   0.237   1.371  0.1698 -0.4100  0.0682
    1ION     CL71716   2.486  27.541   0.010  0.1050  0.1394 -0.0893
    1ION     CL71717  10.928  24.239   7.372  0.0983  0.0489  0.2490
    1ION     CL71718   6.988  17.727   7.389  0.2213 -0.0628 -0.1502
    1ION     CL71719  18.388  23.955   7.570 -0.0294 -0.2822 -0.2192
    1ION     CL71720  14.271  22.092   8.733 -0.2150 -0.1650 -0.0871
    1ION     CL71721  22.807  26.801   7.691 -0.3927 -0.2710  0.3910
    1ION     CL71722  17.045  11.331   0.264  0.1782 -0.1496  0.1124
    1ION     CL71723  27.535   9.490   7.065 -0.2227  0.0170  0.2399
    1ION     CL71724  23.376   4.969   1.670  0.1878 -0.3379 -0.2521
    1ION     CL71725   3.710  27.155   2.921  0.0776 -0.1732  0.1675
    1ION     CL71726  28.077  27.947   2.772 -0.2954 -0.1872 -0.0934
    1ION     CL71727   1.298  23.038   0.020  0.2078  0.0962  0.1239
    1ION     CL71728   0.211  29.972   7.562  0.2296 -0.4548  0.0183
    1ION     CL71729  18.422   8.429   1.268 -0.3074 -0.1399 -0.2061
    1ION     CL71730  20.976  24.490   1.735 -0.0483 -0.0438 -0.0407
    1ION     CL71731  21.063  26.248   1.005  0.0460 -0.3698 -0.1622
    1ION     CL71732  27.745   4.510   3.137 -0.0036  0.1993  0.1564
    1ION     CL71733   9.302  23.818   7.899  0.1617 -0.1779 -0.1792
    1ION     CL71734  29.269  18.581   6.812  0.2025  0.1528 -0.0812
    1ION     CL71735   7.172  17.436   8.455  0.1227  0.0726  0.0250
    1ION     CL71736  24.486   1.031   0.083 -0.0608  0.4307 -0.1792
    1ION     CL71737  12.040   0.632   2.179  0.1280  0.1839 -0.0283
    1ION     CL71738   3.002  26.198   0.880 -0.0719  0.0309  0.0321
    1ION     CL71739   7.296  27.811   7.532 -0.3961  0.0293 -0.1746
    1ION     CL71740   4.621  19.246   1.093 -0.2358 -0.1370 -0.3904
    1ION     CL71741  14.867  23.383   6.443  0.2302  0.2241  0.0191
    1ION     CL71742  16.888  23.002   7.170  0.0910  0.0799  0.1123
    1ION     CL71743  21.300  20.580   6.398  0.1156 -0.0499 -0.2110
    1ION     CL71744   9.922  10.625   7.789  0.1259  0.0950 -0.0861
    1ION     CL71745   5.791  17.595   6.252 -0.0507 -0.2558 -0.1837
    1ION     CL71746  25.396   6.776   1.863  0.2495 -0.0540  0.1774
    1ION     CL71747   7.361  10.496   8.874  0.0914 -0.1180 -0.0890
    1ION     CL71748   5.240   7.154   8.442 -0.0767  0.0431  0.0669
    1ION     CL71749  25.192  15.905   0.301 -0.0326  0.1381  0.0044
    1ION     CL71750  11.745  15.444   2.275 -0.2908 -0.1570  0.0412
    1ION     CL71751  14.386  26.522   0.342 -0.2598 -0.3818 -0.1248
    1ION     CL71752  29.153  16.333   1.250  0.0721  0.1410  0.2349
    1ION     CL71753   2.112  15.641   0.423 -0.0090 -0.0910 -0.3147
    1ION     CL71754   5.775   4.765   0.441 -0.0695  0.1417  0.0877
    1ION     CL71755   8.966  23.118   1.565  0.0018  0.5940  0.5689
    1ION     CL71756  25.917  29.663   0.172  0.0369 -0.0853  0.2169
    1ION     CL71757  14.600  21.548   1.026 -0.0023  0.2381  0.2366
    1ION     CL71758  15.991  24.254   0.348 -0.1031  0.2411 -0.1200
    1ION     CL71759   0.323   8.181   0.825  0.0289 -0.2084 -0.2859
    1ION     CL71760   8.498  26.160   0.056  0.0508  0.1952  0.0264
    1ION     CL71761   0.636  13.753   7.273 -0.1365 -0.1952 -0.1349
    1ION     CL71762   7.935   7.492   3.019  0.4867 -0.0527 -0.1434
    1ION     CL71763  22.044  10.649   1.332  0.1323 -0.1758 -0.2793
    1ION     CL71764  27.725  15.511   0.125 -0.2094 -0.3588  0.0182
    1ION     CL71765   1.560  15.605   1.543 -0.2935  0.2478 -0.2759
    1ION     CL71766   2.258   9.391   2.090  0.1980 -0.0391 -0.3202
    1ION     CL71767  12.772  19.830   6.136  0.3142 -0.2306 -0.0261
    1ION     CL71768  13.525  27.969   2.270  0.0514  0.1569 -0.2573
    1ION     CL71769  16.170   2.446   2.233  0.0362 -0.0260 -0.5118
    1ION     CL71770   0.487  23.265   0.546  0.1467 -0.0656  0.0817
    1ION     CL71771   7.930  11.685   7.505 -0.4332  0.2472 -0.0977
    1ION     CL71772  24.864   2.591   7.340  0.1756  0.0133 -0.1303
    1ION     CL71773   3.656  19.633   7.992 -0.0127  0.1529  0.0645
    1ION     CL71774   4.731  25.325   1.875 -0.1024  0.1614  0.3180
    1ION     CL71775  21.014   4.080   0.665 -0.2910  0.0931 -0.0752
    1ION     CL71776  16.878  17.631   1.700  0.2513  0.1212  0.1524
    1ION     CL71777   1.317  23.123   8.048 -0.0059  0.0991 -0.0441
    1ION     CL71778  20.557  27.697   8.810  0.0869  0.0875 -0.1854
    1ION     CL71779   4.006  17.357   9.032  0.0851  0.0903 -0.0167
    1ION     CL71780   6.559  14.689   1.451  0.0874  0.1532  0.1658
    1ION     CL71781  17.517  16.108   0.868  0.0424 -0.2116 -0.1853
    1ION     CL71782  20.028   8.528   1.717  0.1169 -0.1934  0.2410
    1ION     CL71783  13.469  25.786   7.486  0.0304 -0.1128  0.1908
    1ION     CL71784   5.090  11.013   7.774 -0.1196 -0.4793 -0.1748
    1ION     CL71785   2.082   1.715   8.347  0.1900 -0.1455  0.3758
    1ION     CL71786  23.771   7.518   0.053 -0.0892 -0.0204  0.2040
    1ION     CL71787  26.198  14.276   1.877  0.0357 -0.0560  0.1464
    1ION     CL71788   5.976  24.394   7.933 -0.0570 -0.0292 -0.2148
    1ION     CL71789  30.318  23.714   8.261  0.1600  0.0078  0.4296
    1ION     CL71790   3.632  20.889   0.570 -0.2396 -0.3580  0.1313
    1ION     CL71791  29.754  18.200   6.475 -0.0447 -0.0132 -0.1110
    1ION     CL71792   2.971   4.674   7.184  0.1046 -0.0697 -0.1065
    1ION     CL71793   8.426  28.991   7.456  0.3945  0.0975  0.2685
    1ION     CL71794  14.107  20.512   6.124  0.1480 -0.0545  0.2671
    1ION     CL71795  10.750  20.712   6.461  0.2980  0.1531 -0.1727
    1ION     CL71796  30.110  19.863   1.568 -0.2004 -0.0277 -0.1277
    1ION     CL71797  12.391  26.338   8.675 -0.2263  0.1031  0.1954
    1ION     CL71798  15.450   6.991   6.481  0.2983  0.1117 -0.2312
    1ION     CL71799  29.918  16.946   8.768  0.0616 -0.0956  0.0056
    1ION     CL71800  12.802  25.867   2.309 -0.0954  0.3065 -0.2053
    1ION     CL71801   4.087   4.454   0.630 -0.2431 -0.1775 -0.0161
    1ION     CL71802   0.090  12.736   1.059  0.0642 -0.1584 -0.2226
    1ION     CL71803  21.072   2.248   2.124  0.0362  0.1032 -0.0136
    1ION     CL71804  21.042  21.322   1.198 -0.0367  0.2601 -0.3768
    1ION     CL71805  28.839  21.530   6.840  0.0961 -0.1075 -0.0350
    1ION     CL71806  22.244  13.854   6.687 -0.2746 -0.0700  0.2942
    1ION     CL71807   3.309  17.214   0.950 -0.1250 -0.1495 -0.1385
    1ION     CL71808  18.828  25.683   6.256  0.1765  0.1330 -0.3789
    1ION     CL71809   8.892  19.599   1.214 -0.0456 -0.0740  0.0020
    1ION     CL71810  25.968  22.673   1.593  0.2754  0.2516  0.2321
    1ION     CL71811  28.354  13.904   7.932  0.0636 -0.1004 -0.0941
    1ION     CL71812   4.578  19.977   7.885  0.1480 -0.2213  0.2012
    1ION     CL71813   9.324  29.198   7.608 -0.2820 -0.0979 -0.1704
    1ION     CL71814  17.304   2.200   7.168 -0.2474  0.3651  0.0172
    1ION     CL71815  24.924  25.672   0.622 -0.2894  0.0757  0.1528
    1ION     CL71816  27.032  11.084   6.431  0.0743 -0.1489 -0.1278
    1ION     CL71817   0.246   2.716   7.441  0.2148 -0.2473 -0.1798
    1ION     CL71818   4.242   9.222   6.987  0.2679  0.1584  0.0937
    1ION     CL71819   4.572  15.087   8.928  0.0918  0.1278 -0.1063
    1ION     CL71820  22.220   7.435   0.780  0.0322 -0.1656  0.1951
    1ION     CL71821  21.798  26.755   1.032 -0.0783 -0.2230 -0.5011
    1ION     CL71822  29.670   5.695   7.114  0.1341  0.0791 -0.1949
    1ION     CL71823   5.660  19.107   6.491  0.1915  0.2048 -0.0364
    1ION     CL71824   2.468   0.786   2.039  0.1459 -0.2863  0.2710
    1ION     CL71825  10.211   4.225   1.349  0.0501  0.0030 -0.1213
    1ION     CL71826  19.436  10.620   1.956 -0.1529  0.4751  0.2201
    1ION     CL71827   9.938  14.149   1.305 -0.0896  0.1956  0.1043
    1ION     CL71828  30.290  16.705   0.674 -0.0666 -0.1783  0.3921
    1ION     CL71829  19.558   6.342   0.860  0.0081 -0.1184  0.1468
    1ION     CL71830   7.588  10.707   7.708 -0.0355  0.1738  0.3391
    1ION     CL71831   9.582  11.507   8.021  0.2476 -0.1295 -0.0041
    1ION     CL71832  25.852   9.178   7.126 -0.0936 -0.3714  0.0757
    1ION     CL71833  23.756  14.784   0.564  0.0870  0.3411 -0.0320
    1ION     CL71834   4.269   9.066   1.927 -0.0329 -0.0343  0.1598
    1ION     CL71835  10.014  13.539   1.918  0.4573 -0.1285 -0.3057
    1ION     CL71836   4.898   4.672   6.899  0.1778 -0.1596  0.1842
    1ION     CL71837  12.028  26.046   1.852 -0.0296 -0.2966 -0.2778
    1ION     CL71838  19.490  20.064   1.631  0.0754 -0.0403 -0.1476
    1ION     CL71839  11.242   0.247   7.784  0.0816 -0.4800 -0.0517
    1ION     CL71840   1.604  18.823   6.643 -0.2912  0.0605  0.1815
    1ION     CL71841   9.214  20.729   0.563 -0.0217  0.2751  0.0434
    1ION     CL71842  23.710  19.030   6.812  0.0891 -0.2641  0.3992
    1ION     CL71843  20.710  16.494   8.550  0.0051  0.0754  0.1958
    1ION     CL71844  26.919  19.788   1.094 -0.1761 -0.2814  0.2497
    1ION     CL71845  19.200  24.993   6.964 -0.0558  0.0836 -0.0155
    1ION     CL71846  18.284   0.527   1.126  0.0669 -0.2807 -0.1162
    1ION     CL71847   9.198  23.077   6.797  0.0147 -0.1752 -0.1900
    1ION     CL71848   1.291  20.332   0.607  0.1467 -0.0223  0.1434
    1ION     CL71849  15.658   3.726   0.587 -0.4756 -0.1036  0.0556
    1ION     CL71850  21.581  12.194   0.977  0.2758  0.0499  0.1842
    1ION     CL71851  11.064  14.775   1.234 -0.4363  0.1322 -0.1870
    1ION     CL71852   5.550  14.250   8.234 -0.1048  0.1838 -0.2483
    1ION     CL71853   2.938   6.433   1.052  0.0421 -0.1119  0.0001
    1ION     CL71854   2.273  27.624   7.327 -0.2518  0.4768 -0.1993
    1ION     CL71855   7.328  11.316   2.084  0.2802  0.2485 -0.1468
    1ION     CL71856  26.631  25.473   1.311 -0.0210  0.1356 -0.0054
    1ION     CL71857  10.633  12.679   2.595 -0.0272  0.3006 -0.0746
    1ION     CL71858  18.338  25.322   2.251 -0.1462 -0.0384 -0.1719
    1ION     CL71859  24.134  19.729   6.473 -0.0701  0.0309  0.0735
    1ION     CL71860  16.202  26.180   1.639 -0.2742  0.2436 -0.1003
    1ION     CL71861  24.764   5.124   1.013 -0.0997 -0.1736 -0.0772
    1ION     CL71862  28.545  24.611   0.462 -0.0054 -0.0396 -0.1057
    1ION     CL71863   6.147   0.333   3.011  0.0988 -0.0347 -0.0009
    1ION     CL71864  29.467  23.475   2.186  0.0520 -0.2202 -0.0969
    1ION     CL71865  20.612   3.005   2.123  0.1134  0.1390  0.0842
    1ION     CL71866  10.719   9.492   8.297 -0.1631 -0.1375 -0.0947
    1ION     CL71867  24.457  17.122   0.761 -0.0658  0.1901  0.3396
    1ION     CL71868  28.752  27.148   0.916 -0.1595 -0.0885  0.0505
    1ION     CL71869   2.862  16.337   1.106  0.0207 -0.0966 -0.2356
    1ION     CL71870   1.652  13.475   1.214  0.1393  0.0486  0.0999
    1ION     CL71871  13.236   3.626   1.848 -0.2159  0.1725  0.1075
    1ION     CL71872  16.164   8.203   0.380 -0.0834  0.0137  0.0208
    1ION     CL71873  29.052  12.917   1.243  0.0301 -0.3993  0.1268
    1ION     CL71874  16.685   6.846   7.333  0.2924 -0.1774  0.1326
    1ION     CL71875  10.260  15.445   1.988 -0.1099  0.1032 -0.0194
    1ION     CL71876  14.453   7.827   6.628 -0.0743  0.0464  0.0635
    1ION     CL71877   0.961  26.391   2.899  0.3742  0.0618  0.3117
    1ION     CL71878   2.355   6.315   1.957 -0.2694  0.2034  0.0537
    1ION     CL71879  12.503   5.166   9.269  0.1766  0.5986 -0.1728
    1ION     CL71880  17.069   0.624   8.642  0.1197  0.3984  0.2344
    1ION     CL71881  11.037  20.130   7.241  0.2192  0.3148  0.1989
    1ION     CL71882  17.029  15.916   7.238 -0.2467 -0.0746  0.2137
    1ION     CL71883   0.554  16.369   7.236 -0.3045  0.0401 -0.1422
    1ION     CL71884   9.166  12.754   1.069  0.0909  0.3716 -0.0970
    1ION     CL71885  10.130  20.054   1.054  0.2933  0.0129 -0.0950
    1ION     CL71886  29.500  13.637   0.188 -0.1127  0.0550  0.0197
    1ION     CL71887   9.358   5.084   2.150 -0.5021  0.0809  0.2489
    1ION     CL71888   4.563   6.966   0.386 -0.2461  0.1430 -0.0893
    1ION     CL71889  20.868  20.009   0.700  0.0285 -0.0823  0.0477
    1ION     CL71890  11.822  15.913   7.481  0.1086 -0.0474  0.1231
    1ION     CL71891  17.054   7.729   7.614  0.2770 -0.0444  0.1148
    1ION     CL71892  18.091  23.624   1.076  0.3541  0.0199 -0.0578
    1ION     CL71893  20.250  22.105   8.999 -0.1481 -0.1966 -0.0555
    1ION     CL71894  28.375  16.067   0.630 -0.1791 -0.2580 -0.0720
    1ION     CL71895  18.402  23.360   6.807  0.2298  0.1755  0.0190
    1ION     CL71896  14.052  17.550   7.551 -0.0733 -0.1305  0.1485
    1ION     CL71897   7.509   8.306   1.667 -0.0537 -0.0878  0.1948
    1ION     CL71898  23.271  12.512   8.659 -0.0254 -0.0056 -0.3699
    1ION     CL71899  18.115  18.111   6.181 -0.2006  0.0935 -0.1493
    1ION     CL71900   4.910  17.312   0.493  0.0738  0.0980  0.2475
    1ION     CL71901   9.625  21.553   1.587 -0.2384  0.0459 -0.2889
    1ION     CL71902   7.418  11.812   1.448  0.1322 -0.3600 -0.2685
    1ION     CL71903  17.273  22.201   6.847  0.1403  0.1316  0.2361
    1ION     CL71904  19.625  12.012   2.100  0.1800  0.1613  0.0539
    1ION     CL71905   3.058  18.907   1.323  0.2384  0.1432 -0.0354
    1ION     CL71906  24.477   0.956   7.649 -0.0735 -0.1500  0.1280
    1ION     CL71907   8.596   6.606   2.220 -0.0441 -0.2122 -0.1345
    1ION     CL71908  26.776   4.629   2.071  0.0021 -0.1470  0.2827
    1ION     CL71909   4.553  28.066   2.695  0.1338 -0.0632  0.2302
    1ION     CL71910   9.003  27.013   8.692 -0.0356  0.0527  0.1850
    1ION     CL71911   5.162  16.481   7.487 -0.2156 -0.0693 -0.0955
    1ION     CL71912  19.183   6.564   1.706 -0.0685 -0.0147 -0.1822
    1ION     CL71913  12.118   1.562   6.918  0.0008 -0.0705 -0.0733
    1ION     CL71914  28.815  28.009   7.184 -0.2784 -0.1493  0.2856
    1ION     CL71915  11.548  19.354   6.289 -0.0080  0.1061 -0.0572
    1ION     CL71916  10.469  10.460   1.023  0.0873  0.1541  0.1844
    1ION     CL71917  10.403  24.031   9.189  0.1306 -0.1465  0.4730
    1ION     CL71918  17.818   4.771   8.879  0.3234  0.1350  0.0654
    1ION     CL71919  29.305   7.985   2.327  0.0589 -0.1682 -0.2486
    1ION     CL71920  20.859   2.128   7.456 -0.0865 -0.0391  0.0906
    1ION     CL71921  21.252  18.701   0.938  0.0678 -0.0733  0.1395
    1ION     CL71922   9.845  10.393   2.174  0.1629  0.0647 -0.1301
    1ION     CL71923   7.650   8.938   2.012 -0.0856 -0.0940 -0.2541
    1ION     CL71924  16.693   5.776   7.945 -0.2501  0.1414 -0.0772
    1ION     CL71925  28.028  18.002   9.236  0.0680  0.0330  0.2167
    1ION     CL71926   2.900  23.885   1.549 -0.1261  0.0592 -0.1844
    1ION     CL71927   0.218   9.285   2.319 -0.1356 -0.1779  0.0294
    1ION     CL71928  23.624  25.979   1.302  0.0113 -0.0865 -0.1432
    1ION     CL71929  28.039  25.876   9.272  0.0506 -0.0723  0.1182
    1ION     CL71930  22.554   4.264   2.477  0.3572  0.1726 -0.1758
    1ION     CL71931  16.957  10.614   1.761  0.0011  0.0377  0.1275
    1ION     CL71932   3.852  19.797   6.786 -0.2009  0.0360  0.0839
    1ION     CL71933  26.712  15.058   9.085  0.0594  0.0187 -0.1254
    1ION     CL71934  14.082   0.728   7.700  0.1000 -0.2382  0.0573
    1ION     CL71935   8.870  15.497   1.342 -0.0974  0.0734 -0.2409
    1ION     CL71936  17.626   9.638   1.461  0.1691  0.2017  0.1851
    1ION     CL71937  21.571  24.362   0.918 -0.1580 -0.1438  0.1186
    1ION     CL71938  15.253  11.382   1.147 -0.2266 -0.1189  0.0651
    1ION     CL71939   3.385  22.923   7.403 -0.2336  0.0004  0.0712
    1ION     CL71940  19.185  24.630   1.261 -0.1280 -0.1976  0.2367
    1ION     CL71941  17.898  21.861   1.799 -0.0013 -0.1056 -0.0130
    1ION     CL71942  28.200   2.766   2.666  0.1559 -0.1229 -0.1571
    1ION     CL71943  23.557   6.554   6.714 -0.2056 -0.0758 -0.4113
    1ION     CL71944  13.293  14.083   7.932 -0.0623  0.2439  0.2275
    1ION     CL71945  21.881   7.094   6.447  0.3542 -0.3089  0.0470
    1ION     CL71946  20.530   1.495   2.131  0.1247 -0.1203  0.1671
    1ION     CL71947  18.790  12.773   2.210 -0.4571  0.0502 -0.0797
    1ION     CL71948   6.061  25.696   0.743  0.0447 -0.0115 -0.1621
    1ION     CL71949   1.807  28.312   1.092  0.0032 -0.2959  0.2965
    1ION     CL71950   5.450  20.791   1.442  0.2166 -0.0343 -0.0419
    1ION     CL71951   5.669  16.311   0.149  0.0173  0.1029  0.1295
    1ION     CL71952  24.793  14.301   8.869 -0.2384 -0.1983 -0.1955
    1ION     CL71953   6.403  27.938   2.394  0.0528  0.0975 -0.1574
    1ION     CL71954  15.855   8.322   1.923  0.1921  0.0042 -0.1148
    1ION     CL71955  25.902  27.188   8.936  0.0862 -0.3317 -0.2283
    1ION     CL71956   2.554  29.788   8.914 -0.3537 -0.2267 -0.2283
    1ION     CL71957  23.898   7.901   6.163 -0.0291 -0.0154 -0.0121
    1ION     CL71958   9.867  16.309   1.904  0.0892 -0.0053  0.2252
    1ION     CL71959   2.115  25.319   1.898  0.2780 -0.1122  0.0266
    1ION     CL71960   2.592  16.913   7.510  0.1372  0.2825 -0.0424
    1ION     CL71961   4.082  25.274   1.173 -0.1420 -0.3301 -0.0417
    1ION     CL71962  12.168  12.578   0.495  0.0860  0.0199  0.1081
    1ION     CL71963  27.380  29.183   9.111  0.2764  0.2539 -0.1176
    1ION     CL71964   5.931  16.007   1.524 -0.2880 -0.0536  0.0827
    1ION     CL71965  29.033  21.958   2.214  0.0612 -0.1503 -0.0390
    1ION     CL71966  20.682  19.226   6.770 -0.0736  0.1377  0.1817
    1ION     CL71967   9.718   2.344   2.351  0.3236  0.1165  0.0922
    1ION     CL71968   7.179  17.335   0.530 -0.3837 -0.4067  0.0729
    1ION     CL71969   9.135   7.015   8.312  0.2293  0.1294 -0.1705
    1ION     CL71970   2.235   2.565   1.321 -0.1304  0.2034  0.1902
    1ION     CL71971  22.956   9.298   8.232 -0.0562  0.0898 -0.0348
    1ION     CL71972  20.546  24.648   6.392 -0.1110  0.2658  0.0961
    1ION     CL71973  10.049  17.597   1.386  0.1800  0.0504 -0.1803
    1ION     CL71974  19.729   7.159   9.176 -0.1239  0.1328  0.0338
    1ION     CL71975   6.554  17.468   9.120  0.1035 -0.0405 -0.0375
    1ION     CL71976  20.137  20.917   8.053  0.1473 -0.1072 -0.0780
    1ION     CL71977  11.436   6.485   7.186 -0.1241  0.3618  0.0018
    1ION     CL71978  30.267   2.778   0.399  0.3036 -0.1436  0.1343
    1ION     CL71979   6.104   4.405   1.859 -0.1316 -0.0687  0.0047
    1ION     CL71980   4.080  14.926   1.661  0.2957 -0.0693  0.0005
    1ION     CL71981   3.593  21.782   7.541 -0.1405  0.1712  0.0134
    1ION     CL71982  29.654   8.048   0.171 -0.0705 -0.0712 -0.1921
    1ION     CL71983  26.763  22.858   1.738 -0.0911 -0.0881  0.2191
    1ION     CL71984  17.995   7.786   1.758 -0.0240 -0.0169  0.2203
    1ION     CL71985   2.930  21.151   7.311 -0.0373  0.1834 -0.3025
    1ION     CL71986   3.124  13.232   6.772 -0.2069 -0.0864  0.1288
    1ION     CL71987  22.330   2.201   9.250 -0.0612  0.0832  0.3684
    1ION     CL71988  21.618  28.521   0.852 -0.2687  0.0332 -0.2401
    1ION     CL71989   9.423  17.634   6.441  0.1788 -0.5602 -0.1351
    1ION     CL71990   2.196  25.827   8.376 -0.0024 -0.0047  0.1866
    1ION     CL71991   1.429  26.288   0.846  0.2078  0.0261  0.2327
    1ION     CL71992   0.127  19.046   0.029 -0.0492  0.1186 -0.0355
    1ION     CL71993   6.953  10.806   1.189 -0.0137  0.2319  0.1779
    1ION     CL71994  25.664  20.857   6.948 -0.1636 -0.0083 -0.1760
    1ION     CL71995  12.519  12.363   1.706 -0.2767  0.0036 -0.0312
    1ION     CL71996  30.199  14.433   1.355  0.2576 -0.2024 -0.3768
    1ION     CL71997   6.101  16.783   0.956  0.0212  0.1163 -0.1685
    1ION     CL71998   4.287  23.145   0.258 -0.0710 -0.1121 -0.0012
    1ION     CL71999  17.452   5.590   1.439 -0.0033 -0.2333 -0.1979
    1ION     CL72000   5.539  14.571   0.912 -0.0878  0.0625 -0.0532
    1ION     CL72001  12.379  30.268   1.353 -0.0074 -0.1287  0.1147
    1ION     CL72002  27.072  25.233   7.945  0.0368  0.0168 -0.1645
    1ION     CL72003   7.105   5.530   2.456  0.1492  0.0545 -0.0829
    1ION     CL72004  19.517   8.659   6.731 -0.1594  0.1226  0.3163
    1ION     CL72005  11.955  20.602   1.723  0.2368  0.0486  0.3076
    1ION     CL72006  11.588   4.609   1.774  0.0715  0.0874 -0.2573
    1ION     CL72007   5.406   4.736   2.352  0.0189 -0.3101 -0.1246
    1ION     CL72008   0.156  14.584   9.138 -0.3952 -0.1222  0.3549
    1ION     CL72009   1.619  12.203   7.628  0.1131  0.2116 -0.1583
    1ION     CL72010   2.301   9.867   1.168 -0.0825 -0.2536  0.0245
    1ION     CL72011   0.901  26.992   7.692 -0.2762 -0.1558  0.3104
    1ION     CL72012   8.581  22.339   6.852 -0.0249  0.0537 -0.0100
    1ION     CL72013  16.750  23.716   2.009  0.1579  0.2931  0.0802
    1ION     CL72014  17.715  10.637   8.439 -0.0529 -0.1809 -0.0757
    1ION     CL72015   8.690  10.738   8.420  0.0457  0.2993  0.2738
    1ION     CL72016   8.614   3.172   2.353  0.2122 -0.2320  0.0970
    1ION     CL72017  14.552   5.705   7.351 -0.1312  0.2940 -0.1274
    1ION     CL72018  26.700  12.218   8.020 -0.2127 -0.1016 -0.4404
    1ION     CL72019  15.485  11.933   2.430  0.4505 -0.1976  0.0174
    1ION     CL72020  28.991   5.410   8.302  0.3544 -0.2198 -0.0253
    1ION     CL72021  20.250  12.812   1.944  0.2515  0.0194 -0.1103
    1ION     CL72022  21.532  25.006   2.289 -0.2114  0.2503 -0.0139
    1ION     CL72023  27.765  25.165   0.286 -0.2651  0.4131  0.0838
    1ION     CL72024  15.505   4.581   6.332 -0.2726  0.1436 -0.2565
    1ION     CL72025  28.365  20.518   7.120  0.0280 -0.0266 -0.0023
    1ION     CL72026  18.545  30.214   0.222 -0.0830  0.1847  0.1446
    1ION     CL72027  13.045  28.603   7.792  0.1519 -0.0301 -0.0137
    1ION     CL72028   8.951   3.191   7.161 -0.0058  0.0439 -0.1012
    1ION     CL72029   9.963  19.144   7.271 -0.3703  0.1832 -0.3013
    1OPC    NC372030   0.668  24.411   6.917 -0.2035 -0.0908  0.1007
    1OPC    PO472031   0.494  24.863   6.981  0.0540  0.1631 -0.2712
    1OPC    GL172032   0.387  24.943   6.572  0.1093 -0.1304  0.1196
    1OPC    GL272033   0.231  25.095   6.337 -0.0059 -0.0293 -0.0983
    1OPC    C1B72034   0.144  25.201   5.889  0.1136 -0.0060  0.1807
    1OPC    D2B72035   0.226  25.160   5.406  0.1126  0.1282 -0.1779
    1OPC    C3B72036   0.602  25.274   5.193 -0.0900 -0.4262  0.0141
    1OPC    C4B72037   0.907  25.524   4.911  0.0385 -0.1792 -0.3828
    1OPC    NC372038   1.254  25.454   7.071 -0.1046 -0.0695 -0.0215
    1OPC    PO472039   0.858  25.242   7.038 -0.1987 -0.0477 -0.2162
    1OPC    GL172040   0.808  25.231   6.719 -0.2790  0.1525 -0.2453
    1OPC    GL272041   0.729  25.316   6.461 -0.0973  0.3591 -0.0475
    1OPC    C1B72042   0.656  25.364   6.075  0.1607  0.0525  0.0858
    1OPC    D2B72043   0.769  25.101   5.618  0.1317  0.0735  0.2800
    1OPC    C3B72044   1.150  25.102   5.361 -0.3898 -0.0565  0.1246
    1OPC    C4B72045   1.621  24.971   5.345 -0.1289  0.2528 -0.0590
    1OPC    NC372046   6.912  19.520   6.220  0.0704 -0.0902 -0.0036
    1OPC    PO472047   6.548  19.511   5.929 -0.0971 -0.3149 -0.2600
    1OPC    GL172048   6.310  19.670   5.698  0.0696  0.1909  0.1800
    1OPC    GL272049   6.208  19.763   5.461 -0.0499 -0.1369 -0.0115
    1OPC    C1B72050   6.168  19.663   4.983 -0.1534  0.1847  0.1054
    1OPC    D2B72051   6.234  19.666   4.505 -0.2078  0.0772 -0.1208
    1OPC    C3B72052   6.203  19.371   4.209 -0.4765  0.0125 -0.1785
    1OPC    C4B72053   5.837  19.221   3.830  0.1855 -0.2875  0.0444
    1OPC    NC372054   5.219  14.314   6.963 -0.1703  0.2322  0.1417
    1OPC    PO472055   4.738  14.281   6.915  0.0592 -0.0921 -0.1674
    1OPC    GL172056   4.921  13.977   6.599 -0.0513 -0.0805 -0.1730
    1OPC    GL272057   4.961  13.736   6.279 -0.2354  0.0442 -0.3967
    1OPC    C1B72058   4.920  13.784   5.862 -0.1454  0.2098  0.4121
    1OPC    D2B72059   4.807  13.816   5.471  0.3436 -0.2182 -0.0699
    1OPC    C3B72060   5.079  13.863   5.154  0.0556  0.1658 -0.1684
    1OPC    C4B72061   5.236  14.075   4.852 -0.0861  0.1348 -0.3585
    1OPC    NC372062   5.780  27.306   7.008  0.0818 -0.3828  0.1233
    1OPC    PO472063   6.179  27.236   7.062  0.0471 -0.2721  0.0506
    1OPC    GL172064   6.168  27.531   6.709  0.3477  0.1456 -0.3005
    1OPC    GL272065   6.137  27.768   6.353 -0.0341 -0.1181  0.0598
    1OPC    C1B72066   5.788  27.947   6.091 -0.2444 -0.0901  0.0359
    1OPC    D2B72067   5.403  27.964   5.795  0.1166  0.1684  0.0641
    1OPC    C3B72068   5.058  28.155   5.735 -0.1925 -0.1419 -0.1789
    1OPC    C4B72069   4.586  28.292   5.824  0.0041  0.0522  0.0435
    1OPC    NC372070  21.734  25.243   6.230  0.0197 -0.2603 -0.1673
    1OPC    PO472071  21.506  24.807   6.312  0.3233 -0.2634 -0.0622
    1OPC    GL172072  21.722  24.501   6.132  0.2594  0.0069 -0.1576
    1OPC    GL272073  22.021  24.628   5.954  0.2844 -0.2262  0.0772
    1OPC    C1B72074  22.057  24.945   5.704 -0.1321 -0.2940  0.1997
    1OPC    D2B72075  21.893  25.229   5.521  0.1683  0.1046 -0.1426
    1OPC    C3B72076  21.900  25.176   5.145 -0.2435 -0.1546  0.0173
    1OPC    C4B72077  21.969  25.134   4.708  0.1644 -0.1727 -0.0496
    1OPC    NC372078  27.546   8.167   6.791 -0.0769 -0.0952 -0.0450
    1OPC    PO472079  27.308   8.531   6.817 -0.1692 -0.1238  0.2000
    1OPC    GL172080  27.481   8.485   6.357  0.3608 -0.0011  0.1458
    1OPC    GL272081  27.448   8.243   6.078  0.1634  0.0598  0.2667
    1OPC    C1B72082  27.621   7.883   5.742  0.1492  0.2838 -0.1667
    1OPC    D2B72083  27.466   7.824   5.386  0.1609  0.0003  0.1048
    1OPC    C3B72084  27.855   7.676   5.185 -0.1500 -0.1123 -0.3604
    1OPC    C4B72085  28.266   7.438   5.296  0.0013 -0.2436  0.1662
    1OPC    NC372086   8.150  18.139   6.409 -0.3076  0.3087  0.0991
    1OPC    PO472087   7.919  18.521   6.361  0.2487 -0.2211 -0.0260
    1OPC    GL172088   7.951  18.343   5.994 -0.1810 -0.3428  0.0189
    1OPC    GL272089   7.743  18.356   5.755  0.1438 -0.0843 -0.2318
    1OPC    C1B72090   7.706  18.296   5.356 -0.3283  0.0191 -0.2166
    1OPC    D2B72091   7.729  18.299   4.974 -0.1255  0.0572  0.1283
    1OPC    C3B72092   7.796  18.377   4.565  0.1160  0.0846  0.1310
    1OPC    C4B72093   7.556  18.359   4.210  0.0586  0.0749 -0.1119
    1OPC    NC372094   4.523   0.539   8.048  0.2153 -0.1864  0.0798
    1OPC    PO472095   4.623   0.259   7.684 -0.0423 -0.4217  0.1512
    1OPC    GL172096   4.409   0.332   7.316 -0.0672 -0.0344 -0.1104
    1OPC    GL272097   4.564   0.416   7.056  0.0003  0.0978  0.2078
    1OPC    C1B72098   4.629   0.265   6.577 -0.0309 -0.0962 -0.1409
    1OPC    D2B72099   4.447  30.341   6.255  0.1443 -0.0394  0.3062
    1OPC    C3B72100   4.771   0.004   5.927  0.1278  0.2899 -0.3539
    1OPC    C4B72101   5.068   0.036   5.686  0.0406 -0.0591 -0.0282
    1OPC    NC372102   7.655   0.288   7.101  0.1209  0.1430  0.1794
    1OPC    PO472103   8.092   0.573   7.147  0.0834 -0.3133  0.1594
    1OPC    GL172104   7.941   0.728   6.728  0.0871  0.1522 -0.0245
    1OPC    GL272105   7.761   0.468   6.586  0.1344 -0.0758 -0.1411
    1OPC    C1B72106   7.746   0.102   6.347 -0.1958 -0.2326 -0.2019
    1OPC    D2B72107   7.352  30.355   6.154 -0.0808 -0.0756  0.2437
    1OPC    C3B72108   7.382  30.245   5.747 -0.1450  0.0744  0.1531
    1OPC    C4B72109   7.307   0.048   5.328 -0.0804  0.0922  0.0375
    1OPC    NC372110  28.424   5.996   6.805  0.0547  0.1043  0.1422
    1OPC    PO472111  28.651   6.353   6.934 -0.1172  0.4452  0.0001
    1OPC    GL172112  28.753   6.355   6.447  0.1427  0.1330  0.1238
    1OPC    GL272113  28.711   6.507   6.179  0.1502  0.0974 -0.1727
    1OPC    C1B72114  28.747   6.765   5.871  0.2347 -0.1717  0.1437
    1OPC    D2B72115  28.812   6.765   5.500  0.1367  0.2340 -0.1907
    1OPC    C3B72116  29.237   6.970   5.372  0.1538  0.0475 -0.2024
    1OPC    C4B72117  29.210   7.457   5.217 -0.2665  0.0881 -0.0348
    1OPC    NC372118  22.699   5.014   6.850  0.1311  0.0937  0.2281
    1OPC    PO472119  22.572   4.690   6.994  0.0705  0.0194 -0.1721
    1OPC    GL172120  22.186   4.656   6.685 -0.2245 -0.1631 -0.0995
    1OPC    GL272121  22.279   4.651   6.309 -0.1506 -0.1134 -0.1728
    1OPC    C1B72122  22.415   4.387   6.007  0.0562 -0.0670 -0.0907
    1OPC    D2B72123  22.526   4.129   5.614 -0.2636 -0.0290  0.2922
    1OPC    C3B72124  22.949   4.149   5.498 -0.0479  0.0108 -0.0132
    1OPC    C4B72125  23.309   4.082   5.594  0.2050 -0.0378 -0.1326
    1OPC    NC372126  25.184  17.956   6.078  0.1987  0.0655 -0.0614
    1OPC    PO472127  25.257  17.616   5.948  0.0327  0.1323  0.1008
    1OPC    GL172128  25.388  17.308   5.945 -0.0337  0.1560 -0.1587
    1OPC    GL272129  25.635  17.155   5.761 -0.2180  0.1024 -0.1304
    1OPC    C1B72130  25.692  17.109   5.357  0.3791 -0.0494  0.0559
    1OPC    D2B72131  25.696  17.040   5.064 -0.3083  0.3091 -0.0894
    1OPC    C3B72132  25.823  17.192   4.646 -0.0031 -0.1484 -0.4376
    1OPC    C4B72133  26.055  16.991   4.243  0.4167  0.3838 -0.3499
    1OPC    NC372134  26.418  10.441   6.641  0.1341 -0.3639 -0.2557
    1OPC    PO472135  25.999  10.094   6.473  0.1855 -0.2204 -0.3083
    1OPC    GL172136  26.111   9.947   5.954 -0.0808  0.0571  0.0718
    1OPC    GL272137  26.482  10.015   5.817  0.1830 -0.1153  0.3395
    1OPC    C1B72138  26.667  10.267   5.487  0.0502  0.1853 -0.2440
    1OPC    D2B72139  26.581  10.521   5.146 -0.1729 -0.1627 -0.1614
    1OPC    C3B72140  26.747  10.408   4.634 -0.1615 -0.0152 -0.0253
    1OPC    C4B72141  27.024  10.181   4.250  0.1167 -0.0957  0.1734
    1OPC    NC372142  27.807  13.659   7.221  0.1566 -0.4774 -0.1588
    1OPC    PO472143  27.635  13.699   6.880  0.2717 -0.0505 -0.0258
    1OPC    GL172144  27.621  13.411   6.538  0.0515  0.3418 -0.0071
    1OPC    GL272145  27.725  13.562   6.206 -0.1049 -0.1456 -0.0244
    1OPC    C1B72146  27.629  13.446   5.798 -0.2959 -0.1554 -0.1057
    1OPC    D2B72147  27.685  13.177   5.445  0.0547  0.1989 -0.0838
    1OPC    C3B72148  27.544  13.171   5.032  0.0259  0.0159 -0.1212
    1OPC    C4B72149  27.555  13.134   4.661  0.2124  0.2193 -0.0594
    1OPC    NC372150  15.288   6.962   6.029  0.0249  0.1581 -0.1559
    1OPC    PO472151  14.805   7.183   5.959 -0.2126  0.1037  0.0542
    1OPC    GL172152  15.165   7.247   5.614  0.1531 -0.1373  0.2201
    1OPC    GL272153  15.052   7.103   5.444 -0.0040  0.0678 -0.2083
    1OPC    C1B72154  14.754   7.101   5.068  0.0003  0.1231 -0.0791
    1OPC    D2B72155  14.758   7.077   4.522  0.2472  0.1632  0.0579
    1OPC    C3B72156  15.150   7.194   4.320  0.0896  0.1382  0.0470
    1OPC    C4B72157  15.525   7.290   4.477 -0.0672  0.2276  0.1558
    1OPC    NC372158   9.950  30.026   6.697  0.1537  0.1668 -0.0978
    1OPC    PO472159   9.774   0.127   6.830  0.0457 -0.1479 -0.2533
    1OPC    GL172160   9.591   0.460   6.504  0.1478  0.1033  0.2085
    1OPC    GL272161   9.605   0.435   6.139  0.2064 -0.0836 -0.1313
    1OPC    C1B72162   9.490   0.281   5.801  0.2400  0.2037  0.2786
    1OPC    D2B72163   9.146   0.166   5.651 -0.1151  0.1688 -0.1006
    1OPC    C3B72164   8.758   0.242   5.370 -0.0389  0.0559 -0.1181
    1OPC    C4B72165   8.564   0.110   5.097  0.3958 -0.1735 -0.3182
    1OPC    NC372166   2.025  26.899   7.092  0.3590  0.2690  0.3657
    1OPC    PO472167   2.419  26.580   7.235  0.3108 -0.1636 -0.1994
    1OPC    GL172168   2.244  26.580   6.752 -0.0654 -0.2733 -0.1500
    1OPC    GL272169   2.366  26.594   6.511 -0.0971  0.0068  0.1479
    1OPC    C1B72170   2.557  26.912   6.250  0.1051  0.0189 -0.2224
    1OPC    D2B72171   2.679  26.944   5.712  0.1574 -0.0700 -0.0783
    1OPC    C3B72172   3.050  26.895   5.615 -0.2604  0.1035  0.0271
    1OPC    C4B72173   3.419  26.918   5.383 -0.2743 -0.0240 -0.0191
    1OPC    NC372174  25.919  11.602   6.383 -0.2852 -0.0325 -0.1672
    1OPC    PO472175  25.978  11.177   6.320 -0.2626  0.0163 -0.1318
    1OPC    GL172176  26.110  11.263   5.927 -0.0529 -0.1153  0.1405
    1OPC    GL272177  26.060  11.374   5.642 -0.1220  0.1147 -0.1795
    1OPC    C1B72178  26.143  11.402   5.206 -0.1131  0.1119 -0.1234
    1OPC    D2B72179  26.232  11.505   4.790  0.0323 -0.1968 -0.0035
    1OPC    C3B72180  26.260  11.741   4.453  0.0288 -0.0235  0.0055
    1OPC    C4B72181  26.378  11.795   4.127  0.2025  0.1038  0.2740
    1OPC    NC372182   8.163  11.241   7.261 -0.0248  0.1332 -0.5515
    1OPC    PO472183   8.088  11.410   6.800  0.0388  0.1459 -0.1041
    1OPC    GL172184   7.965  11.560   6.417 -0.0849 -0.2225 -0.0264
    1OPC    GL272185   8.091  11.444   6.094 -0.1256 -0.1805  0.2798
    1OPC    C1B72186   8.262  11.581   5.712 -0.1719 -0.1302  0.1007
    1OPC    D2B72187   8.648  11.838   5.550  0.1971  0.1392  0.1018
    1OPC    C3B72188   8.623  12.232   5.308  0.2767  0.1959 -0.0959
    1OPC    C4B72189   8.244  12.344   5.135  0.0590  0.1131  0.1813
    1OPC    NC372190  27.851   1.604   8.264 -0.1916  0.0275 -0.4070
    1OPC    PO472191  27.690   1.685   7.986  0.1992  0.1370  0.0208
    1OPC    GL172192  27.840   1.574   7.543  0.1327 -0.0699 -0.2378
    1OPC    GL272193  27.682   1.506   7.228 -0.4240 -0.1958 -0.1161
    1OPC    C1B72194  27.742   1.448   6.801 -0.3019 -0.0533 -0.4668
    1OPC    D2B72195  27.537   1.758   6.653  0.4560  0.1416  0.0930
    1OPC    C3B72196  27.392   1.706   6.157 -0.0359  0.2714  0.0295
    1OPC    C4B72197  27.216   1.734   5.918  0.0840  0.0808 -0.1377
    1OPC    NC372198   1.408  28.506   7.033  0.3549  0.0110  0.0831
    1OPC    PO472199   1.730  28.693   7.309 -0.0671 -0.0324 -0.1557
    1OPC    GL172200   1.982  28.720   6.949 -0.0065 -0.2928  0.3431
    1OPC    GL272201   1.837  28.624   6.601 -0.1477 -0.0022  0.0413
    1OPC    C1B72202   1.868  28.580   6.183  0.0561  0.1877 -0.0235
    1OPC    D2B72203   1.703  28.682   5.822  0.0115  0.0589  0.2065
    1OPC    C3B72204   1.407  28.801   5.437  0.3590  0.0686 -0.0004
    1OPC    C4B72205   1.335  29.121   5.285 -0.2440 -0.0764  0.1617
    1OPC    NC372206   8.955  16.266   6.921  0.1719  0.0223 -0.2812
    1OPC    PO472207   8.677  16.130   6.504 -0.0414 -0.2877 -0.2587
    1OPC    GL172208   8.888  15.814   6.183 -0.2842  0.1892 -0.0401
    1OPC    GL272209   9.135  15.769   5.979  0.5531  0.2548 -0.2210
    1OPC    C1B72210   9.459  15.668   5.673  0.1130 -0.2988  0.0016
    1OPC    D2B72211   9.575  15.638   5.218 -0.1750  0.0339 -0.0792
    1OPC    C3B72212   9.660  16.018   5.001  0.0692  0.0893 -0.3200
    1OPC    C4B72213   9.648  16.170   4.611  0.2138  0.3577  0.1004
    1OPC    NC372214   1.537  26.044   7.647  0.3200 -0.0929  0.0685
    1OPC    PO472215   1.376  26.327   7.318 -0.0533 -0.1135  0.1161
    1OPC    GL172216   1.244  26.211   6.849 -0.4058  0.2383 -0.0785
    1OPC    GL272217   0.997  26.279   6.672 -0.0100  0.3550  0.1104
    1OPC    C1B72218   0.774  26.417   6.197  0.1747  0.4669  0.0336
    1OPC    D2B72219   0.513  26.725   5.899 -0.0957 -0.2499  0.1781
    1OPC    C3B72220   0.408  26.723   5.498  0.1990 -0.0002  0.0587
    1OPC    C4B72221   0.215  27.097   5.378  0.0738 -0.1525 -0.3212
    1OPC    NC372222   2.698  16.124   6.204  0.0526 -0.0476  0.3584
    1OPC    PO472223   3.135  15.992   6.290 -0.2300 -0.0990  0.0796
    1OPC    GL172224   2.975  15.892   5.835  0.1756  0.2195 -0.1023
    1OPC    GL272225   2.875  15.836   5.630 -0.0030  0.1446  0.1132
    1OPC    C1B72226   2.937  15.711   5.262 -0.1456  0.0472  0.2076
    1OPC    D2B72227   2.933  15.626   4.846 -0.0756  0.1956 -0.3556
    1OPC    C3B72228   3.113  15.332   4.757  0.1774 -0.0155 -0.0816
    1OPC    C4B72229   3.139  15.105   4.420 -0.0702  0.1442 -0.0960
    1OPC    NC372230   8.903   9.938   6.745  0.4933  0.0535  0.1169
    1OPC    PO472231   9.276   9.927   6.611  0.0726  0.1326  0.1116
    1OPC    GL172232   9.037   9.820   6.237  0.1282 -0.1942 -0.2884
    1OPC    GL272233   8.821   9.703   6.019 -0.3936  0.2062 -0.0362
    1OPC    C1B72234   8.902   9.420   5.703  0.0283 -0.4104 -0.1034
    1OPC    D2B72235   8.907   9.387   5.232  0.0691 -0.4053 -0.0504
    1OPC    C3B72236   9.104   9.253   4.834 -0.1373 -0.1150  0.2149
    1OPC    C4B72237   9.381   9.244   4.459 -0.1657  0.0198 -0.0316
    1OPC    NC372238  14.740  17.562   6.331  0.1765 -0.1180  0.1344
    1OPC    PO472239  14.775  18.036   6.217 -0.1953  0.2923  0.1711
    1OPC    GL172240  14.626  18.317   5.859  0.0061 -0.0392  0.0273
    1OPC    GL272241  14.676  18.524   5.553 -0.1276 -0.1615  0.0390
    1OPC    C1B72242  14.666  18.454   5.102 -0.0056  0.0936  0.1533
    1OPC    D2B72243  14.836  18.222   4.696 -0.3209  0.2437 -0.3093
    1OPC    C3B72244  14.604  18.169   4.284  0.3848 -0.2751 -0.1268
    1OPC    C4B72245  14.333  18.490   4.041 -0.2037  0.1279  0.3400
    1OPC    NC372246   5.290  29.582   7.365  0.1260  0.0526  0.1461
    1OPC    PO472247   5.588  29.237   7.334 -0.1828 -0.0577  0.2586
    1OPC    GL172248   5.530  29.026   7.002  0.4382  0.2284  0.1591
    1OPC    GL272249   5.653  28.904   6.737 -0.4170 -0.2013  0.0821
    1OPC    C1B72250   5.727  28.854   6.335  0.1330 -0.0692 -0.0513
    1OPC    D2B72251   5.520  29.056   5.948 -0.0356  0.0845  0.2485
    1OPC    C3B72252   5.407  28.819   5.561 -0.2883 -0.2703  0.0706
    1OPC    C4B72253   5.086  28.611   5.421 -0.3046 -0.1933  0.1917
    1OPC    NC372254  20.671  20.037   6.092 -0.1036  0.0597 -0.1868
    1OPC    PO472255  20.318  20.000   5.703  0.1731  0.1845 -0.3835
    1OPC    GL172256  20.124  19.504   5.525 -0.1941 -0.1148 -0.0962
    1OPC    GL272257  20.309  19.269   5.303 -0.1961 -0.1672  0.1512
    1OPC    C1B72258  20.431  19.176   4.935 -0.2236 -0.1742  0.0740
    1OPC    D2B72259  20.307  19.228   4.477  0.0374 -0.0688  0.0439
    1OPC    C3B72260  20.041  19.274   4.160 -0.0317 -0.0999 -0.3832
    1OPC    C4B72261  20.211  19.607   3.771 -0.0602  0.2067 -0.1771
    1OPC    NC372262   2.838   9.146   7.526 -0.1665 -0.0979 -0.1566
    1OPC    PO472263   2.796   9.385   7.143  0.2601  0.4352  0.0134
    1OPC    GL172264   2.452   9.565   6.940  0.0325  0.0989  0.3116
    1OPC    GL272265   2.338   9.932   6.752 -0.1758 -0.1310  0.3545
    1OPC    C1B72266   2.431  10.219   6.412 -0.1918  0.1804 -0.0502
    1OPC    D2B72267   2.535  10.533   6.248  0.1130 -0.0578  0.0953
    1OPC    C3B72268   2.492  10.500   5.836 -0.0580 -0.2259  0.0529
    1OPC    C4B72269   2.448  10.416   5.392 -0.2980 -0.1506 -0.1061
    1OPC    NC372270   4.900  16.127   7.055  0.2136  0.1223 -0.1334
    1OPC    PO472271   5.204  15.986   6.638 -0.0706 -0.0655  0.2812
    1OPC    GL172272   5.332  15.677   6.413  0.4586  0.1936  0.1360
    1OPC    GL272273   5.370  15.345   6.115  0.3091 -0.0659 -0.2941
    1OPC    C1B72274   5.165  15.088   5.748 -0.2543 -0.0567 -0.2612
    1OPC    D2B72275   4.868  15.061   5.353  0.2877  0.1353  0.1450
    1OPC    C3B72276   5.056  14.931   4.965  0.0951  0.0565  0.4546
    1OPC    C4B72277   5.282  14.675   4.634  0.0771  0.0203  0.0263
    1OPC    NC372278   3.318  21.020   7.002 -0.0085  0.0428 -0.2046
    1OPC    PO472279   3.422  21.425   6.714  0.1236  0.1627 -0.2071
    1OPC    GL172280   3.314  21.580   6.357 -0.3942  0.0550  0.2346
    1OPC    GL272281   3.296  21.764   6.115 -0.2879 -0.1936 -0.1660
    1OPC    C1B72282   3.184  21.768   5.612  0.0988 -0.1983 -0.0467
    1OPC    D2B72283   3.243  21.767   5.254 -0.0277  0.1837 -0.1659
    1OPC    C3B72284   2.951  22.005   5.011  0.3474  0.0467 -0.0911
    1OPC    C4B72285   2.766  22.101   4.638  0.0470  0.1939  0.0295
    1OPC    NC372286   6.088  24.777   7.037 -0.2956  0.0397 -0.3215
    1OPC    PO472287   6.508  24.812   7.005 -0.0247  0.2795  0.0508
    1OPC    GL172288   6.499  24.669   6.667 -0.0200 -0.0419 -0.1911
    1OPC    GL272289   6.537  24.656   6.316 -0.0897 -0.0403  0.0552
    1OPC    C1B72290   6.758  24.710   5.923  0.1343  0.2296  0.2265
    1OPC    D2B72291   6.891  24.432   5.486 -0.0353  0.2828 -0.2964
    1OPC    C3B72292   7.066  24.364   5.120  0.2855 -0.3605  0.3457
    1OPC    C4B72293   7.365  24.250   4.824 -0.2264 -0.2359  0.0948
    1OPC    NC372294   3.767   2.103   7.608  0.2197 -0.1064  0.0732
    1OPC    PO472295   3.652   1.604   7.518  0.1228 -0.0699  0.0984
    1OPC    GL172296   3.676   1.955   7.147  0.0021  0.1174  0.3007
    1OPC    GL272297   3.819   1.861   6.846  0.1929  0.0854  0.2040
    1OPC    C1B72298   3.855   1.903   6.343  0.0277  0.1531  0.2819
    1OPC    D2B72299   4.140   1.808   6.066  0.1390 -0.3018 -0.1331
    1OPC    C3B72300   3.884   1.582   5.670  0.3235 -0.2323  0.1466
    1OPC    C4B72301   3.655   1.533   5.249 -0.0525 -0.3342  0.1751
    1OPC    NC372302   3.771   8.494   6.794  0.0244  0.0788 -0.0551
    1OPC    PO472303   3.455   8.807   6.763  0.1070 -0.1901 -0.0778
    1OPC    GL172304   3.497   8.497   6.336  0.1587 -0.0168 -0.0687
    1OPC    GL272305   3.465   8.572   6.060 -0.0524 -0.0070 -0.0413
    1OPC    C1B72306   3.395   8.980   5.832 -0.1700  0.0373  0.1549
    1OPC    D2B72307   3.237   9.103   5.529 -0.2506 -0.2160 -0.1391
    1OPC    C3B72308   3.540   9.099   5.214 -0.0585  0.1979  0.2411
    1OPC    C4B72309   3.489   9.045   4.774  0.0992 -0.3514  0.0591
    1OPC    NC372310  22.421  10.133   5.910 -0.0670  0.1913  0.5656
    1OPC    PO472311  22.076  10.464   6.060  0.0840 -0.2337 -0.1456
    1OPC    GL172312  21.923  10.146   5.733 -0.0324 -0.1685  0.0893
    1OPC    GL272313  21.850  10.184   5.443  0.3021 -0.1845 -0.0268
    1OPC    C1B72314  21.839  10.389   5.148 -0.5891 -0.2706 -0.1162
    1OPC    D2B72315  22.036  10.505   4.763 -0.0758  0.2254  0.2858
    1OPC    C3B72316  21.995  10.425   4.390  0.2806  0.2527  0.4339
    1OPC    C4B72317  22.110  10.258   3.902 -0.5276  0.4062 -0.1044
    1OPC    NC372318   9.975  15.054   6.767  0.2072  0.1927 -0.0237
    1OPC    PO472319   9.594  15.270   6.744 -0.0206  0.0815  0.2105
    1OPC    GL172320   9.229  14.966   6.553  0.0141  0.1504 -0.0189
    1OPC    GL272321   9.126  14.701   6.351  0.0740 -0.0949 -0.0394
    1OPC    C1B72322   9.142  14.662   5.885 -0.1324 -0.1107  0.0629
    1OPC    D2B72323   9.059  14.493   5.473 -0.0346 -0.1086 -0.0452
    1OPC    C3B72324   8.795  14.694   5.186  0.0232  0.5231  0.1814
    1OPC    C4B72325   8.546  14.980   4.931 -0.0692  0.0921  0.0089
    1OPC    NC372326  28.795  27.139   6.828 -0.2898  0.0062  0.1823
    1OPC    PO472327  28.955  26.764   6.863 -0.0886 -0.0011  0.0324
    1OPC    GL172328  28.932  26.888   6.402 -0.0796 -0.2180 -0.3209
    1OPC    GL272329  28.880  26.817   6.008  0.0639 -0.0099 -0.1178
    1OPC    C1B72330  28.641  26.666   5.657  0.1223  0.0485 -0.0483
    1OPC    D2B72331  28.659  26.579   5.274  0.0097 -0.1722 -0.0900
    1OPC    C3B72332  28.424  26.603   4.878 -0.4845 -0.1404 -0.1428
    1OPC    C4B72333  28.651  26.378   4.507 -0.0341  0.1961 -0.1300
    1OPC    NC372334   1.572   2.284   7.701  0.1462 -0.1041 -0.0559
    1OPC    PO472335   1.605   2.406   7.231 -0.1614 -0.1096  0.1726
    1OPC    GL172336   1.583   2.349   6.757 -0.0558  0.0659  0.1790
    1OPC    GL272337   1.680   2.221   6.552  0.1378 -0.1775  0.3374
    1OPC    C1B72338   1.885   2.199   6.199  0.1941 -0.1136  0.2373
    1OPC    D2B72339   2.126   2.071   5.824 -0.1054 -0.0147  0.0936
    1OPC    C3B72340   2.330   2.338   5.493  0.1362  0.0504  0.2080
    1OPC    C4B72341   2.414   2.722   5.198 -0.3127 -0.1101 -0.0200
    1OPC    NC372342   5.987  10.979   7.293  0.0764 -0.1578  0.2221
    1OPC    PO472343   5.949  10.722   6.739 -0.2323 -0.1276  0.1532
    1OPC    GL172344   6.006  10.837   6.299  0.0239 -0.2884 -0.0044
    1OPC    GL272345   6.053  10.648   5.978  0.0553  0.1962  0.0301
    1OPC    C1B72346   6.208  10.318   5.754  0.1759 -0.0800  0.0237
    1OPC    D2B72347   6.529  10.027   5.555  0.2170  0.1610  0.1449
    1OPC    C3B72348   6.590   9.951   5.160  0.0695 -0.0247  0.3686
    1OPC    C4B72349   6.388   9.506   4.808  0.0950 -0.2444 -0.0211
    1OPC    NC372350  26.066  13.351   6.867  0.1223 -0.1940  0.2673
    1OPC    PO472351  25.823  13.530   6.417  0.0401  0.2767  0.1315
    1OPC    GL172352  25.777  13.492   5.879 -0.2815 -0.2465 -0.2573
    1OPC    GL272353  25.987  13.654   5.584 -0.1305  0.1005 -0.0544
    1OPC    C1B72354  26.146  13.771   5.112  0.0214  0.0786 -0.1630
    1OPC    D2B72355  26.417  13.832   4.760 -0.0818 -0.0630 -0.3141
    1OPC    C3B72356  26.709  14.178   4.569  0.1163 -0.0064 -0.2683
    1OPC    C4B72357  26.924  14.307   4.094 -0.1106 -0.0200  0.1080
    1OPC    NC372358  28.352  24.980   6.469  0.1648 -0.0118  0.0436
    1OPC    PO472359  28.778  24.894   6.585  0.0921  0.0879 -0.2386
    1OPC    GL172360  28.769  24.855   6.121 -0.1386  0.0493 -0.1897
    1OPC    GL272361  28.982  24.842   5.877  0.1619  0.1987  0.1946
    1OPC    C1B72362  29.149  24.704   5.505  0.3110  0.1175 -0.3025
    1OPC    D2B72363  29.182  24.790   5.103  0.1133  0.0220 -0.2544
    1OPC    C3B72364  28.960  24.865   4.741 -0.0806 -0.2961  0.1600
    1OPC    C4B72365  29.047  24.756   4.353  0.1248  0.1203 -0.1286
    1OPC    NC372366   5.319   9.522   7.096  0.3239 -0.0952 -0.0119
    1OPC    PO472367   4.972   9.490   6.739 -0.2564  0.0073 -0.0341
    1OPC    GL172368   5.273   9.534   6.462  0.3862 -0.4529 -0.1157
    1OPC    GL272369   5.422   9.635   6.258 -0.0875 -0.0990 -0.2640
    1OPC    C1B72370   5.294   9.545   5.927 -0.0377  0.1386  0.2484
    1OPC    D2B72371   5.291   9.814   5.535 -0.1251  0.0944 -0.0654
    1OPC    C3B72372   5.552   9.780   5.179 -0.0231 -0.2827 -0.1313
    1OPC    C4B72373   5.596   9.443   4.911  0.4273 -0.0352 -0.3440
    1OPC    NC372374  15.561  26.289   6.487 -0.0150  0.1119  0.2022
    1OPC    PO472375  15.278  25.981   6.346  0.0091  0.1348  0.0762
    1OPC    GL172376  14.779  25.978   6.221 -0.2313  0.1542  0.0264
    1OPC    GL272377  14.470  26.022   6.111 -0.0713 -0.0581 -0.3419
    1OPC    C1B72378  14.167  26.167   5.849 -0.0521  0.0732  0.1124
    1OPC    D2B72379  13.907  26.301   5.662 -0.0250 -0.3270  0.2962
    1OPC    C3B72380  13.820  26.683   5.698  0.0186  0.1335 -0.0879
    1OPC    C4B72381  13.809  27.034   5.506  0.0767  0.1837 -0.0260
    1OPC    NC372382  29.641  24.901   6.737  0.0628 -0.1890 -0.0584
    1OPC    PO472383  29.910  24.607   6.648 -0.5142  0.3276  0.1479
    1OPC    GL172384  30.280  24.643   6.346 -0.0079  0.1679  0.1812
    1OPC    GL272385   0.078  24.708   6.125 -0.0077  0.0093  0.3841
    1OPC    C1B72386   0.243  24.708   5.689  0.3100 -0.0689 -0.5332
    1OPC    D2B72387   0.415  24.322   5.506 -0.1173 -0.4366 -0.1861
    1OPC    C3B72388   0.404  24.215   5.060 -0.0656 -0.3525  0.0263
    1OPC    C4B72389   0.706  23.918   4.849  0.1387  0.0706  0.4188
    1OPC    NC372390  14.590  18.483   6.340 -0.2495 -0.0049 -0.3106
    1OPC    PO472391  14.332  18.819   6.260  0.1092  0.2422 -0.0076
    1OPC    GL172392  14.182  18.587   5.991  0.3291 -0.1843 -0.1138
    1OPC    GL272393  14.131  18.550   5.580  0.1624 -0.1119  0.2880
    1OPC    C1B72394  14.230  18.711   5.050 -0.1198  0.0325  0.0567
    1OPC    D2B72395  14.252  18.629   4.538  0.0517 -0.0662  0.0230
    1OPC    C3B72396  13.934  18.867   4.236 -0.0359  0.2533  0.0672
    1OPC    C4B72397  13.930  19.163   3.886 -0.0469 -0.1254  0.2072
    1OPC    NC372398   5.192   2.442   7.992 -0.2024  0.1601 -0.0186
    1OPC    PO472399   5.278   2.658   7.677 -0.2362  0.1962  0.2606
    1OPC    GL172400   5.047   2.630   7.291  0.2549 -0.3541  0.0353
    1OPC    GL272401   4.991   2.583   6.866  0.2083  0.1261 -0.2363
    1OPC    C1B72402   4.862   2.678   6.468 -0.1520 -0.1415  0.0589
    1OPC    D2B72403   4.886   2.936   6.083  0.0353 -0.1702 -0.2368
    1OPC    C3B72404   5.105   2.864   5.747 -0.2406  0.1330  0.0169
    1OPC    C4B72405   5.550   2.794   5.678 -0.3061  0.0610 -0.2079
    1OPC    NC372406  14.287   1.653   6.675 -0.0225  0.0227  0.0622
    1OPC    PO472407  14.630   1.408   6.537 -0.4597 -0.1008 -0.0507
    1OPC    GL172408  14.349   1.355   6.085 -0.4247  0.0786  0.1217
    1OPC    GL272409  14.381   1.423   5.871 -0.1837 -0.0109  0.3057
    1OPC    C1B72410  14.540   1.752   5.596  0.2775  0.0681 -0.0312
    1OPC    D2B72411  14.825   2.015   5.424 -0.0250  0.1902  0.0849
    1OPC    C3B72412  15.093   2.053   4.990 -0.0542 -0.0317 -0.1761
    1OPC    C4B72413  15.604   2.193   4.822 -0.0409  0.0868 -0.4544
    1OPC    NC372414  28.344  14.609   6.325  0.0982  0.2229  0.0220
    1OPC    PO472415  28.783  14.441   6.377  0.1514 -0.1609  0.0559
    1OPC    GL172416  28.747  14.506   5.948 -0.0988  0.3111 -0.3167
    1OPC    GL272417  28.953  14.502   5.710  0.1233  0.0734  0.1738
    1OPC    C1B72418  28.909  14.484   5.322  0.1554  0.3542  0.0978
    1OPC    D2B72419  28.770  14.475   4.859 -0.1112 -0.1289  0.0775
    1OPC    C3B72420  29.012  14.154   4.607 -0.2436 -0.0386  0.1538
    1OPC    C4B72421  29.375  14.148   4.492  0.0353  0.1413 -0.0594
    1OPC    NC372422  29.059  13.889   7.216 -0.0360  0.0440 -0.1373
    1OPC    PO472423  28.844  13.529   6.946  0.4739  0.1854 -0.2357
    1OPC    GL172424  28.564  13.554   6.577  0.0261 -0.1967  0.2431
    1OPC    GL272425  28.510  13.532   6.265  0.0162  0.2655 -0.0908
    1OPC    C1B72426  28.517  13.473   5.882  0.1415 -0.1755 -0.2979
    1OPC    D2B72427  28.592  13.407   5.471 -0.1865 -0.2627  0.2212
    1OPC    C3B72428  28.415  13.355   4.955 -0.1450  0.1152  0.0593
    1OPC    C4B72429  28.268  13.730   4.774  0.5927  0.0658  0.3463
    1OPC    NC372430  10.741  27.721   7.698 -0.1650  0.0370 -0.0923
    1OPC    PO472431  10.661  27.904   7.242 -0.0691  0.0392 -0.2525
    1OPC    GL172432  10.818  28.138   6.930  0.0378  0.0989  0.2339
    1OPC    GL272433  10.821  28.336   6.671 -0.0812  0.2543  0.3090
    1OPC    C1B72434  10.905  28.185   6.331 -0.0046 -0.0601 -0.1678
    1OPC    D2B72435  10.898  28.324   5.839  0.0652  0.1597 -0.1046
    1OPC    C3B72436  10.696  28.045   5.455 -0.0220 -0.4695 -0.1918
    1OPC    C4B72437  10.819  27.852   5.101  0.0032 -0.2686 -0.1223
    1OPC    NC372438   3.121   7.853   7.205  0.2882  0.1818 -0.4044
    1OPC    PO472439   3.261   7.508   6.890 -0.0482  0.0906  0.2964
    1OPC    GL172440   3.297   7.267   6.471  0.1064 -0.1951 -0.2452
    1OPC    GL272441   3.481   7.335   6.216 -0.0184  0.2321  0.3264
    1OPC    C1B72442   3.341   7.304   5.796  0.1333 -0.2055 -0.2074
    1OPC    D2B72443   3.158   7.297   5.455 -0.5669 -0.0307  0.0527
    1OPC    C3B72444   3.212   7.617   5.161 -0.2058  0.3450 -0.0119
    1OPC    C4B72445   3.122   8.021   5.185  0.2631  0.2346 -0.1988
    1OPC    NC372446   5.127  13.271   7.088  0.0407  0.2727 -0.2060
    1OPC    PO472447   5.086  13.469   6.716  0.3779  0.1094 -0.2601
    1OPC    GL172448   5.172  13.314   6.270  0.2948  0.3266  0.1398
    1OPC    GL272449   5.181  13.264   5.928 -0.0486  0.1251  0.3454
    1OPC    C1B72450   5.290  13.525   5.599  0.1986 -0.1368 -0.1107
    1OPC    D2B72451   5.386  13.424   5.185  0.1142  0.1807  0.1635
    1OPC    C3B72452   5.313  13.567   4.767 -0.1240 -0.1223  0.3435
    1OPC    C4B72453   5.446  13.777   4.394  0.0776 -0.0888  0.1143
    1OPC    NC372454   1.015  16.276   6.316  0.0950  0.3294 -0.1998
    1OPC    PO472455   0.702  16.433   6.509 -0.1099  0.3062  0.0710
    1OPC    GL172456   0.369  16.345   6.219  0.0612 -0.1502 -0.0019
    1OPC    GL272457   0.257  16.304   5.901  0.1317  0.0870 -0.1688
    1OPC    C1B72458   0.004  16.275   5.474 -0.1251  0.1233 -0.0296
    1OPC    D2B72459  30.299  16.297   5.025 -0.3643  0.0651 -0.0893
    1OPC    C3B72460  30.067  16.422   4.796  0.1509  0.1177  0.0497
    1OPC    C4B72461  30.165  16.608   4.375  0.1800 -0.1453 -0.2444
    1OPC    NC372462   5.747   3.364   6.852 -0.1457  0.1013  0.1041
    1OPC    PO472463   5.307   3.334   7.062 -0.0664  0.1639  0.0329
    1OPC    GL172464   4.954   3.343   6.776 -0.3739  0.2103 -0.0386
    1OPC    GL272465   4.778   3.233   6.526 -0.3076  0.1777  0.1144
    1OPC    C1B72466   4.606   3.357   6.177 -0.2993  0.1804  0.1023
    1OPC    D2B72467   4.908   3.398   5.923 -0.1533  0.1706 -0.0369
    1OPC    C3B72468   4.722   3.204   5.630  0.3083 -0.4378  0.0588
    1OPC    C4B72469   4.322   3.173   5.684 -0.1618 -0.0215 -0.0559
    1OPC    NC372470  27.057   9.351   6.893 -0.0908  0.1384  0.3028
    1OPC    PO472471  27.318   9.291   6.511  0.3163  0.2350 -0.1969
    1OPC    GL172472  27.357   9.545   6.100 -0.0209 -0.0364  0.3723
    1OPC    GL272473  27.408   9.649   5.697 -0.2030  0.3025 -0.2512
    1OPC    C1B72474  27.684   9.628   5.386  0.4804  0.1879 -0.0733
    1OPC    D2B72475  27.778   9.464   4.940  0.2957  0.1642  0.1853
    1OPC    C3B72476  27.523   9.545   4.625  0.0869  0.0555 -0.1807
    1OPC    C4B72477  27.276   9.714   4.239 -0.1523  0.1088 -0.0890
    1OPC    NC372478  22.594  28.502   7.359 -0.1765  0.1747 -0.2994
    1OPC    PO472479  22.375  28.573   6.963  0.1450 -0.2461  0.1693
    1OPC    GL172480  22.253  28.625   6.512  0.0200  0.1267 -0.1247
    1OPC    GL272481  22.014  28.719   6.189  0.2240  0.1916 -0.0563
    1OPC    C1B72482  21.971  28.799   5.783  0.1407 -0.0598  0.1054
    1OPC    D2B72483  21.893  29.097   5.372  0.1888 -0.0617 -0.1276
    1OPC    C3B72484  21.551  29.464   5.213  0.2394 -0.2820 -0.2475
    1OPC    C4B72485  21.378  29.785   4.991 -0.2886  0.3063 -0.2413
    1OPC    NC372486   0.287  28.939   7.408 -0.0884  0.0707 -0.1011
    1OPC    PO472487   0.284  29.150   7.072 -0.1286  0.1310  0.0784
    1OPC    GL172488   0.038  29.024   6.745  0.0010  0.0961  0.1016
    1OPC    GL272489  30.328  28.729   6.594 -0.1389 -0.1012  0.1060
    1OPC    C1B72490  30.196  28.515   6.226 -0.1800 -0.1738  0.0730
    1OPC    D2B72491   0.065  28.467   5.819  0.3486  0.1325 -0.1024
    1OPC    C3B72492   0.246  28.073   5.766  0.0095  0.0232 -0.0972
    1OPC    C4B72493   0.246  27.613   5.626 -0.0296 -0.0649 -0.0349
    1OPC    NC372494   9.279   4.958   6.631  0.1813 -0.3890  0.1262
    1OPC    PO472495   9.189   5.277   6.845 -0.1723 -0.1131 -0.1077
    1OPC    GL172496   8.981   5.311   6.484 -0.3781 -0.1250 -0.0587
    1OPC    GL272497   8.850   5.305   6.122  0.0429 -0.2955  0.1677
    1OPC    C1B72498   8.964   5.504   5.707  0.3022 -0.1053  0.2321
    1OPC    D2B72499   9.270   5.788   5.629  0.3001 -0.2074  0.2621
    1OPC    C3B72500   9.209   6.073   5.314 -0.2163 -0.1106  0.0282
    1OPC    C4B72501   9.300   6.238   4.928 -0.0939 -0.1661 -0.3129
    1OPC    NC372502  25.846  28.848   7.226  0.0065 -0.0131 -0.1587
    1OPC    PO472503  26.288  29.007   7.418  0.0625  0.1013  0.0444
    1OPC    GL172504  26.631  28.965   7.139  0.1461 -0.0251 -0.0782
    1OPC    GL272505  26.793  28.724   6.945 -0.0907  0.1736  0.0796
    1OPC    C1B72506  27.016  28.515   6.542  0.1377 -0.0479 -0.3091
    1OPC    D2B72507  27.074  28.287   6.082 -0.0925  0.0042 -0.1802
    1OPC    C3B72508  26.899  28.301   5.682  0.0512  0.1543  0.0948
    1OPC    C4B72509  26.905  28.624   5.298  0.1287  0.2203  0.1181
    1OPC    NC372510   7.540  11.370   6.634  0.2218 -0.0463  0.2037
    1OPC    PO472511   7.530  11.751   6.590 -0.4018 -0.1239 -0.0815
    1OPC    GL172512   7.760  11.931   6.217  0.2763  0.2431 -0.2332
    1OPC    GL272513   7.898  11.863   5.925  0.0851 -0.2856 -0.1352
    1OPC    C1B72514   7.617  11.867   5.643  0.0653 -0.5648  0.0173
    1OPC    D2B72515   7.482  11.970   5.151 -0.0686 -0.2401 -0.3265
    1OPC    C3B72516   7.050  12.157   5.096 -0.0151  0.0173  0.2079
    1OPC    C4B72517   6.875  12.140   4.745  0.0681  0.1979 -0.1910
    1OPC    NC372518  24.186  18.949   5.870 -0.0826  0.1303 -0.1910
    1OPC    PO472519  24.607  19.203   5.836 -0.2341  0.1792  0.3354
    1OPC    GL172520  24.521  19.617   5.728 -0.0718 -0.1594 -0.0066
    1OPC    GL272521  24.555  19.767   5.472  0.0084 -0.0769 -0.3886
    1OPC    C1B72522  24.689  19.831   5.068  0.0455 -0.0861  0.1492
    1OPC    D2B72523  24.980  19.763   4.784  0.1015  0.0146  0.1304
    1OPC    C3B72524  24.797  19.739   4.369  0.0343  0.3195  0.1471
    1OPC    C4B72525  24.522  19.489   3.988  0.2295  0.3160 -0.0495
    1OPC    NC372526  29.807   8.028   6.598 -0.3268 -0.0846 -0.0192
    1OPC    PO472527  30.035   7.778   6.849  0.3903 -0.0667  0.3434
    1OPC    GL172528  29.822   7.439   6.587  0.0449  0.1570 -0.5904
    1OPC    GL272529  29.699   7.284   6.370  0.0980  0.0719  0.2497
    1OPC    C1B72530  29.625   7.342   5.913  0.0077 -0.0890 -0.0679
    1OPC    D2B72531  29.753   7.465   5.556  0.1618 -0.2664  0.3706
    1OPC    C3B72532  29.784   7.303   5.179 -0.4114  0.2095 -0.1090
    1OPC    C4B72533  30.005   7.213   4.891 -0.0445 -0.0173 -0.1366
    1OPC    NC372534   2.448  11.565   6.991 -0.2464 -0.2427 -0.1124
    1OPC    PO472535   2.883  11.472   6.935 -0.1372 -0.0609  0.1351
    1OPC    GL172536   2.756  11.514   6.455 -0.2915 -0.3651 -0.2378
    1OPC    GL272537   2.864  11.323   6.187  0.2319  0.0113 -0.3837
    1OPC    C1B72538   2.900  11.273   5.738 -0.0751  0.0039  0.1161
    1OPC    D2B72539   3.111  11.159   5.379  0.0689 -0.0360 -0.1912
    1OPC    C3B72540   3.179  11.355   5.000 -0.0171  0.1812  0.2365
    1OPC    C4B72541   3.111  11.613   4.670  0.0508 -0.0239  0.0716
    1OPC    NC372542  18.206  17.673   6.509 -0.3751 -0.1317  0.1067
    1OPC    PO472543  18.309  17.214   6.444 -0.1450  0.0102  0.2044
    1OPC    GL172544  18.391  16.894   6.095  0.0930 -0.2144  0.0938
    1OPC    GL272545  18.410  17.016   5.790 -0.1288 -0.0897  0.2654
    1OPC    C1B72546  18.287  16.834   5.409 -0.0699 -0.1116 -0.0891
    1OPC    D2B72547  18.225  16.383   5.351 -0.1616  0.2324  0.0067
    1OPC    C3B72548  18.093  16.164   4.994  0.0186  0.0187  0.0032
    1OPC    C4B72549  17.879  15.882   4.676  0.1338 -0.1039 -0.0077
    1OPC    NC372550  27.937   8.966   7.007  0.0081 -0.1273 -0.3480
    1OPC    PO472551  28.156   8.951   6.717  0.0461 -0.2791 -0.2136
    1OPC    GL172552  28.526   8.833   6.615 -0.1060 -0.0612 -0.0624
    1OPC    GL272553  28.639   8.639   6.404 -0.6180 -0.0481 -0.0916
    1OPC    C1B72554  28.916   8.511   5.998 -0.0855 -0.1013 -0.1316
    1OPC    D2B72555  28.873   8.615   5.628  0.0653 -0.2016  0.0991
    1OPC    C3B72556  29.064   8.818   5.272 -0.1498  0.0358  0.4579
    1OPC    C4B72557  29.284   9.003   5.065  0.1834 -0.1993 -0.2841
    1OPC    NC372558   4.308  14.022   6.849 -0.2208 -0.0135  0.0329
    1OPC    PO472559   4.160  13.613   6.889  0.1260 -0.1201  0.2909
    1OPC    GL172560   3.974  13.445   6.525  0.1913 -0.0948  0.1552
    1OPC    GL272561   4.128  13.485   6.186  0.1999 -0.0036 -0.0718
    1OPC    C1B72562   4.266  13.473   5.685 -0.1382  0.2449  0.3538
    1OPC    D2B72563   4.376  13.435   5.214 -0.1443 -0.0419  0.1642
    1OPC    C3B72564   4.280  13.122   4.896 -0.1837 -0.0526 -0.0425
    1OPC    C4B72565   4.086  13.108   4.486 -0.0607 -0.1444 -0.1037
    1OPC    NC372566   8.811   4.269   7.143  0.2737  0.3381  0.0496
    1OPC    PO472567   8.563   3.946   6.977 -0.0257  0.2153  0.2398
    1OPC    GL172568   8.393   4.091   6.580  0.1429  0.3901  0.1752
    1OPC    GL272569   8.383   4.289   6.341 -0.0058 -0.1177  0.0120
    1OPC    C1B72570   8.141   4.356   5.978  0.3000 -0.1741 -0.3012
    1OPC    D2B72571   7.810   4.175   5.721 -0.0581  0.0186  0.0287
    1OPC    C3B72572   7.883   3.957   5.357  0.2933 -0.2393 -0.0408
    1OPC    C4B72573   7.791   3.842   4.965 -0.0291 -0.0152  0.0543
    1OPC    NC372574   0.906  20.549   6.875 -0.2882 -0.1813  0.0943
    1OPC    PO472575   0.783  20.751   6.513  0.2239 -0.1087 -0.3124
    1OPC    GL172576   0.715  20.803   6.059  0.1660 -0.1831 -0.1718
    1OPC    GL272577   0.686  20.926   5.778  0.1549  0.0166  0.1024
    1OPC    C1B72578   0.573  20.954   5.428 -0.1246 -0.0578 -0.2579
    1OPC    D2B72579   0.437  20.937   5.040  0.1447 -0.1816  0.1870
    1OPC    C3B72580   0.588  20.949   4.694  0.0753 -0.0741 -0.0867
    1OPC    C4B72581   0.374  21.115   4.345 -0.0167  0.0805  0.0284
    1OPC    NC372582  10.472  13.053   7.762  0.0126  0.1721 -0.2357
    1OPC    PO472583  10.530  12.790   7.370 -0.0414 -0.1400  0.3256
    1OPC    GL172584  10.198  12.971   7.102  0.1976  0.0375  0.0847
    1OPC    GL272585  10.201  13.085   6.870  0.0217 -0.1823 -0.3340
    1OPC    C1B72586  10.300  13.095   6.433  0.1524  0.1083  0.0253
    1OPC    D2B72587  10.236  13.373   6.050  0.2396  0.0057 -0.1830
    1OPC    C3B72588  10.336  13.243   5.643 -0.0926 -0.0329  0.0435
    1OPC    C4B72589  10.422  13.358   5.272  0.0875  0.2545  0.0036
    1OPC    NC372590  15.433  16.324   6.568 -0.0917  0.1995 -0.1339
    1OPC    PO472591  15.755  16.547   6.329 -0.3822 -0.2001  0.2683
    1OPC    GL172592  16.023  16.210   6.238  0.0227 -0.1056  0.1780
    1OPC    GL272593  16.124  15.890   6.303  0.1763 -0.0126 -0.2986
    1OPC    C1B72594  16.237  15.520   5.980 -0.3358 -0.2752  0.1595
    1OPC    D2B72595  16.072  15.209   5.621 -0.1494 -0.2330  0.1857
    1OPC    C3B72596  15.914  15.305   5.283  0.0759 -0.0902 -0.3944
    1OPC    C4B72597  15.824  15.092   4.944 -0.2159  0.3141 -0.0010
    1OPC    NC372598  25.198  20.085   6.506 -0.0525 -0.2877  0.3698
    1OPC    PO472599  25.178  19.599   6.501 -0.1629  0.2983  0.0515
    1OPC    GL172600  25.493  19.693   6.161  0.1389  0.4478  0.1095
    1OPC    GL272601  25.558  19.937   5.893  0.1600  0.1313 -0.3265
    1OPC    C1B72602  25.465  19.935   5.552 -0.1472 -0.0502 -0.0680
    1OPC    D2B72603  25.359  20.059   5.201 -0.3002  0.0403 -0.0459
    1OPC    C3B72604  25.450  19.922   4.802  0.1379 -0.1306 -0.0155
    1OPC    C4B72605  25.539  19.967   4.350 -0.0594 -0.0425 -0.3624
    1OPC    NC372606  26.357   7.867   6.308  0.0781  0.0337  0.1524
    1OPC    PO472607  26.746   7.824   6.545 -0.0710  0.1308  0.2053
    1OPC    GL172608  26.853   7.857   6.139  0.1278 -0.1527 -0.1035
    1OPC    GL272609  27.032   7.981   6.039  0.1983 -0.1732 -0.0613
    1OPC    C1B72610  27.133   8.190   5.644 -0.0368 -0.0526  0.0820
    1OPC    D2B72611  27.306   8.276   5.247 -0.1613  0.1085  0.1967
    1OPC    C3B72612  27.579   8.056   4.936  0.1939 -0.0078 -0.1097
    1OPC    C4B72613  27.618   8.156   4.568 -0.0006 -0.0706  0.0075
    1OPC    NC372614   4.101   7.045   7.095  0.0805 -0.1026  0.1089
    1OPC    PO472615   4.312   6.864   6.753  0.3055 -0.1044  0.1254
    1OPC    GL172616   4.656   6.671   6.499 -0.3802  0.0775 -0.1405
    1OPC    GL272617   4.764   6.727   6.205 -0.3729 -0.0337  0.0460
    1OPC    C1B72618   4.740   6.832   5.802  0.0544 -0.1511 -0.0573
    1OPC    D2B72619   4.830   6.633   5.472  0.0181 -0.0696 -0.3311
    1OPC    C3B72620   5.082   6.816   5.123 -0.1495  0.0643 -0.1394
    1OPC    C4B72621   5.355   7.172   5.014 -0.0016 -0.4421  0.0347
    1OPC    NC372622  10.175  13.594   7.122  0.1412  0.3662  0.2028
    1OPC    PO472623   9.891  13.362   7.247  0.0365  0.1199 -0.0994
    1OPC    GL172624   9.738  13.558   6.788  0.3693  0.0944 -0.0427
    1OPC    GL272625   9.584  13.732   6.475  0.2185  0.2578 -0.0654
    1OPC    C1B72626   9.394  13.714   6.066  0.4016  0.0275 -0.0294
    1OPC    D2B72627   9.357  13.695   5.668 -0.1066  0.3389  0.0810
    1OPC    C3B72628   9.459  14.044   5.516  0.0749 -0.1188  0.2589
    1OPC    C4B72629   9.498  14.277   5.817 -0.2752 -0.2947  0.1339
    1OPC    NC372630   8.011  10.384   6.723 -0.0037  0.0591  0.1151
    1OPC    PO472631   8.467  10.438   6.733 -0.0164 -0.2744 -0.1824
    1OPC    GL172632   8.236  10.667   6.369 -0.0063  0.2040 -0.2292
    1OPC    GL272633   8.278  10.844   6.040  0.0546  0.2688  0.0882
    1OPC    C1B72634   8.286  11.091   5.614 -0.0474 -0.1612  0.3137
    1OPC    D2B72635   8.166  11.010   5.208  0.3413  0.1181  0.0072
    1OPC    C3B72636   7.689  11.142   5.052  0.0119  0.2325  0.2616
    1OPC    C4B72637   7.631  11.580   4.875 -0.0231  0.0036  0.0416
    1OPC    NC372638   1.533  23.669   2.293  0.0552  0.4574  0.2680
    1OPC    PO472639   1.824  23.876   2.502  0.0920  0.2074 -0.0695
    1OPC    GL172640   1.884  23.868   2.929  0.0424  0.0745 -0.0792
    1OPC    GL272641   2.180  23.863   3.177 -0.0131  0.0403  0.2888
    1OPC    C1B72642   2.412  23.898   3.539 -0.0887  0.2492 -0.0577
    1OPC    D2B72643   2.361  23.848   3.992 -0.0165  0.0817 -0.0810
    1OPC    C3B72644   2.101  24.020   4.198 -0.1323 -0.2951 -0.1782
    1OPC    C4B72645   1.761  24.105   4.416 -0.2318  0.0845  0.1626
    1OPC    NC372646   8.807  29.884   3.141  0.1727 -0.0151  0.0378
    1OPC    PO472647   8.750  29.477   2.989  0.3563 -0.0944 -0.2377
    1OPC    GL172648   8.623  29.345   3.432 -0.0294  0.2170 -0.0874
    1OPC    GL272649   8.463  29.229   3.670 -0.0351  0.2705  0.0856
    1OPC    C1B72650   8.253  29.179   4.134 -0.0499  0.1134  0.1275
    1OPC    D2B72651   8.260  29.170   4.650 -0.1780 -0.1580 -0.1025
    1OPC    C3B72652   8.052  28.897   4.836 -0.1798  0.2888 -0.1058
    1OPC    C4B72653   7.606  28.838   4.853 -0.0656 -0.1849  0.4640
    1OPC    NC372654   6.455  24.242   1.652 -0.2454  0.1838 -0.2960
    1OPC    PO472655   6.200  24.003   2.098 -0.1027 -0.0109 -0.1117
    1OPC    GL172656   6.343  23.629   2.453  0.0611 -0.2132  0.0014
    1OPC    GL272657   6.196  23.627   2.769  0.1538  0.0388 -0.0060
    1OPC    C1B72658   6.442  23.534   3.154  0.2359  0.1700  0.2311
    1OPC    D2B72659   6.722  23.334   3.313  0.1822 -0.0667 -0.1222
    1OPC    C3B72660   6.629  23.008   3.577 -0.1978 -0.0034  0.0841
    1OPC    C4B72661   6.400  22.727   3.739 -0.1127 -0.1039  0.1660
    1OPC    NC372662  25.335  20.010   1.447 -0.2540  0.3109 -0.0500
    1OPC    PO472663  25.166  19.954   1.847 -0.1038 -0.0345  0.3549
    1OPC    GL172664  25.417  19.928   2.213  0.0001 -0.1328  0.4154
    1OPC    GL272665  25.492  20.097   2.544  0.1019 -0.2624 -0.3685
    1OPC    C1B72666  25.489  19.924   2.930 -0.0495 -0.0881  0.2636
    1OPC    D2B72667  25.475  19.671   3.305  0.3714 -0.0999 -0.1165
    1OPC    C3B72668  25.684  19.487   3.581  0.1624 -0.3892 -0.0214
    1OPC    C4B72669  25.565  19.393   4.014  0.0484  0.1531  0.2099
    1OPC    NC372670   4.257   1.231   3.272 -0.0459  0.0216 -0.2092
    1OPC    PO472671   4.141   0.834   3.444 -0.0968  0.2136 -0.2745
    1OPC    GL172672   4.316   0.640   3.880 -0.0104 -0.1495 -0.0794
    1OPC    GL272673   4.279   0.556   4.156 -0.0674 -0.1203  0.2617
    1OPC    C1B72674   3.899   0.654   4.465 -0.3023  0.4456  0.1308
    1OPC    D2B72675   3.774   0.625   4.897 -0.1823  0.1684 -0.0261
    1OPC    C3B72676   3.443   0.456   5.141  0.0883  0.1519  0.2781
    1OPC    C4B72677   3.175   0.751   5.438 -0.0624  0.0907  0.1063
    1OPC    NC372678   7.956  21.780   2.235  0.0845  0.4652 -0.0583
    1OPC    PO472679   7.493  21.878   2.046  0.0264  0.0588 -0.2819
    1OPC    GL172680   7.674  21.380   2.182  0.0306  0.1089  0.2136
    1OPC    GL272681   7.593  21.226   2.463  0.4891 -0.0575 -0.1802
    1OPC    C1B72682   7.364  21.222   2.768 -0.2697  0.1003 -0.1198
    1OPC    D2B72683   6.997  21.343   2.894 -0.1202  0.1500 -0.2182
    1OPC    C3B72684   6.830  21.122   3.209 -0.1146 -0.1138  0.1747
    1OPC    C4B72685   6.502  20.818   3.268 -0.0398  0.0891 -0.1255
    1OPC    NC372686   7.473  24.836   2.322  0.1392  0.0297 -0.0340
    1OPC    PO472687   7.863  24.799   2.576 -0.1134 -0.0869  0.2136
    1OPC    GL172688   7.825  24.807   2.962  0.0704 -0.0367  0.1741
    1OPC    GL272689   7.753  24.671   3.234 -0.2974  0.2996  0.2877
    1OPC    C1B72690   7.779  24.424   3.587  0.1122 -0.0111 -0.0370
    1OPC    D2B72691   7.898  24.412   4.036 -0.1864  0.1060 -0.0170
    1OPC    C3B72692   7.931  24.101   4.427 -0.1484 -0.2023  0.2635
    1OPC    C4B72693   7.801  24.014   4.800  0.0653 -0.0296  0.1171
    1OPC    NC372694   0.720   3.073   3.250  0.0352 -0.4646 -0.0876
    1OPC    PO472695   1.064   2.997   3.405  0.2911  0.2339 -0.0352
    1OPC    GL172696   0.954   3.389   3.621  0.0498 -0.0680 -0.0379
    1OPC    GL272697   0.853   3.524   4.005  0.1215 -0.1303  0.1447
    1OPC    C1B72698   0.682   3.403   4.384  0.2222  0.2346  0.2780
    1OPC    D2B72699   0.539   3.497   4.707  0.1849 -0.2615 -0.1021
    1OPC    C3B72700   0.533   3.270   5.190  0.0702 -0.1189 -0.0246
    1OPC    C4B72701   0.510   3.437   5.645  0.1129 -0.0521  0.0601
    1OPC    NC372702  17.726   2.002   2.458  0.1206 -0.1766 -0.1562
    1OPC    PO472703  17.504   2.361   2.390  0.3825  0.0411 -0.1903
    1OPC    GL172704  17.628   2.419   2.818 -0.0146  0.1766 -0.1525
    1OPC    GL272705  17.776   2.398   3.155 -0.2425 -0.2319 -0.0322
    1OPC    C1B72706  17.716   2.595   3.618 -0.0974  0.1925 -0.2583
    1OPC    D2B72707  17.577   2.528   4.033 -0.0484  0.3748 -0.0925
    1OPC    C3B72708  17.638   2.088   4.192  0.0532  0.1674  0.2841
    1OPC    C4B72709  17.824   1.713   4.390  0.2586  0.0429 -0.3036
    1OPC    NC372710  21.021  21.832   1.406  0.2116  0.0627 -0.0584
    1OPC    PO472711  21.156  21.883   1.951 -0.1128 -0.2272 -0.2159
    1OPC    GL172712  20.918  21.881   2.405 -0.0660 -0.1612 -0.0489
    1OPC    GL272713  20.678  21.975   2.632 -0.0812 -0.0712  0.2308
    1OPC    C1B72714  20.525  21.961   3.064  0.0749 -0.0611  0.1133
    1OPC    D2B72715  20.283  22.014   3.440  0.1341 -0.0974 -0.0318
    1OPC    C3B72716  20.066  22.432   3.627 -0.2675  0.0495 -0.0137
    1OPC    C4B72717  19.685  22.256   3.683  0.0656  0.0075  0.2045
    1OPC    NC372718   7.363  21.360   1.756  0.0342  0.0686 -0.0290
    1OPC    PO472719   7.281  20.841   1.889 -0.1587  0.0909  0.3141
    1OPC    GL172720   7.187  21.123   2.193 -0.0580  0.1253 -0.0057
    1OPC    GL272721   6.892  21.245   2.345  0.0245  0.1210  0.1016
    1OPC    C1B72722   6.625  21.565   2.567 -0.1255 -0.0893 -0.1995
    1OPC    D2B72723   6.863  21.930   2.720 -0.2286 -0.2186 -0.2458
    1OPC    C3B72724   7.108  21.855   3.142  0.0189  0.2276 -0.1243
    1OPC    C4B72725   7.135  21.463   3.375  0.1883 -0.0693 -0.0206
    1OPC    NC372726   1.751   8.338   2.799  0.1709  0.0275  0.1202
    1OPC    PO472727   1.356   8.202   2.610  0.1575 -0.0707  0.0233
    1OPC    GL172728   1.328   8.498   2.861 -0.0336 -0.0644  0.0440
    1OPC    GL272729   1.217   8.580   3.133 -0.3690  0.2216 -0.1021
    1OPC    C1B72730   1.081   8.340   3.480  0.1779 -0.2622 -0.0248
    1OPC    D2B72731   0.734   8.199   3.807 -0.1129  0.0374 -0.1078
    1OPC    C3B72732   1.077   8.103   4.086  0.1997 -0.0004 -0.3942
    1OPC    C4B72733   1.288   8.346   4.427 -0.1005 -0.1225 -0.0257
    1OPC    NC372734  19.031  30.301   1.736 -0.2524  0.1322 -0.1375
    1OPC    PO472735  18.916  30.034   2.055 -0.1330  0.0093  0.2042
    1OPC    GL172736  18.924  30.078   2.605 -0.0325 -0.4940 -0.2806
    1OPC    GL272737  18.942  30.136   2.941 -0.1473  0.1495 -0.2298
    1OPC    C1B72738  18.867  30.032   3.359 -0.1887  0.2063  0.0794
    1OPC    D2B72739  18.677  30.186   3.720 -0.0753 -0.0422 -0.0288
    1OPC    C3B72740  18.463  29.758   3.954  0.0196 -0.5548 -0.1970
    1OPC    C4B72741  18.326  29.341   4.011 -0.0173 -0.0693  0.2469
    1OPC    NC372742   5.916  21.683   1.736  0.0913 -0.4714 -0.1414
    1OPC    PO472743   6.214  21.953   1.525  0.1881 -0.0742 -0.0869
    1OPC    GL172744   6.068  22.129   1.955  0.2524 -0.2257  0.3606
    1OPC    GL272745   5.944  21.925   2.164  0.0757  0.0548  0.0031
    1OPC    C1B72746   5.702  21.727   2.458 -0.0637  0.2302 -0.0293
    1OPC    D2B72747   5.530  21.740   2.717 -0.0772  0.2192  0.0366
    1OPC    C3B72748   5.734  21.542   2.948  0.1595  0.0812 -0.0010
    1OPC    C4B72749   6.033  21.639   3.155 -0.3667 -0.2580  0.0503
    1OPC    NC372750  10.195   5.876   2.437  0.1711  0.0357 -0.1840
    1OPC    PO472751  10.403   5.937   2.865  0.5307 -0.1989  0.0143
    1OPC    GL172752  10.424   6.025   3.226  0.1338 -0.0580  0.1463
    1OPC    GL272753  10.592   6.037   3.471 -0.0221 -0.0345  0.0200
    1OPC    C1B72754  10.611   5.994   3.938  0.1741  0.1763 -0.2096
    1OPC    D2B72755  10.385   6.182   4.290  0.0655  0.3575  0.2502
    1OPC    C3B72756  10.518   6.592   4.278  0.0352 -0.1564  0.1963
    1OPC    C4B72757  10.904   6.903   4.350  0.2305  0.1941 -0.2288
    1OPC    NC372758  24.358  17.228   1.717 -0.1616  0.1332  0.0388
    1OPC    PO472759  23.929  17.296   2.068  0.0353  0.1860 -0.2543
    1OPC    GL172760  24.008  17.549   2.359 -0.0643  0.1923 -0.1598
    1OPC    GL272761  24.151  17.339   2.518 -0.0050 -0.0333  0.2300
    1OPC    C1B72762  24.100  17.392   2.925 -0.0669 -0.1117  0.0369
    1OPC    D2B72763  23.942  17.269   3.353  0.2536 -0.0072 -0.2097
    1OPC    C3B72764  23.735  16.924   3.511  0.0339 -0.1100 -0.1080
    1OPC    C4B72765  23.715  16.543   3.756  0.0107 -0.1843 -0.1854
    1OPC    NC372766  12.060  11.951   3.207  0.0683 -0.0654 -0.2447
    1OPC    PO472767  11.622  12.146   3.112 -0.3342 -0.0764 -0.0874
    1OPC    GL172768  11.440  12.530   3.295  0.1094  0.1495  0.2398
    1OPC    GL272769  11.454  12.568   3.643  0.2288 -0.0740  0.3536
    1OPC    C1B72770  11.515  12.705   4.001 -0.0415  0.0021  0.2032
    1OPC    D2B72771  11.212  13.058   4.286  0.1289 -0.0162  0.1703
    1OPC    C3B72772  11.117  12.952   4.670  0.0706  0.1581  0.4006
    1OPC    C4B72773  11.059  12.710   5.033 -0.2299  0.0321  0.0184
    1OPC    NC372774   6.742  20.445   1.200 -0.0235 -0.2104 -0.0018
    1OPC    PO472775   7.129  20.428   1.512  0.0615 -0.0113 -0.2703
    1OPC    GL172776   6.765  20.350   1.721  0.0807  0.0219 -0.2150
    1OPC    GL272777   6.502  20.318   2.028 -0.2050  0.1980 -0.2835
    1OPC    C1B72778   6.430  20.434   2.497  0.0966 -0.0180  0.2611
    1OPC    D2B72779   6.340  20.721   2.806  0.0199 -0.1426  0.2240
    1OPC    C3B72780   6.578  21.129   2.765  0.3116  0.0625  0.1338
    1OPC    C4B72781   6.464  21.478   3.039 -0.0023 -0.1471  0.1548
    1OPC    NC372782   2.709   0.134   3.092  0.0325 -0.1579 -0.0497
    1OPC    PO472783   3.049  30.312   3.353 -0.0884  0.1817  0.4145
    1OPC    GL172784   3.062  30.330   3.815 -0.1774  0.4378  0.0484
    1OPC    GL272785   2.930  30.301   4.113  0.2461  0.2622 -0.3144
    1OPC    C1B72786   2.948  30.090   4.485 -0.3346 -0.0288 -0.3480
    1OPC    D2B72787   2.897  30.177   4.929 -0.0754  0.2637  0.0104
    1OPC    C3B72788   3.238  30.156   5.123 -0.2030 -0.1655 -0.0372
    1OPC    C4B72789   3.650  29.901   5.168 -0.0444  0.3628 -0.0516
    1OPC    NC372790   0.181  15.410   1.381  0.0381  0.0957 -0.1377
    1OPC    PO472791   0.597  15.399   1.361 -0.1944 -0.4046 -0.1085
    1OPC    GL172792   0.718  15.578   1.800  0.0353  0.0483 -0.0074
    1OPC    GL272793   0.639  15.576   2.102 -0.0774  0.0511  0.0609
    1OPC    C1B72794   0.352  15.688   2.459 -0.1548 -0.0354 -0.1187
    1OPC    D2B72795   0.186  15.943   2.766  0.1082  0.2309  0.2291
    1OPC    C3B72796   0.220  15.883   3.198 -0.0115  0.0338 -0.0185
    1OPC    C4B72797   0.260  15.823   3.604  0.3202  0.1230  0.1518
    1OPC    NC372798   5.813  22.012   1.134  0.2075 -0.0325 -0.0091
    1OPC    PO472799   5.687  22.321   1.418  0.0032  0.0282 -0.0132
    1OPC    GL172800   5.695  22.535   1.828  0.1389 -0.1214 -0.0837
    1OPC    GL272801   5.734  22.449   2.182  0.1056 -0.1031  0.0013
    1OPC    C1B72802   5.838  22.344   2.590 -0.4376 -0.1224  0.0319
    1OPC    D2B72803   5.944  22.198   3.019 -0.0195  0.0621 -0.2056
    1OPC    C3B72804   5.679  22.013   3.291  0.2498  0.2583 -0.0321
    1OPC    C4B72805   5.546  21.621   3.460 -0.1820 -0.3781 -0.1875
    1OPC    NC372806  12.318  26.104   2.273 -0.0552  0.0274  0.5611
    1OPC    PO472807  12.150  26.357   2.608  0.3863 -0.1128  0.7371
    1OPC    GL172808  12.130  26.175   2.918  0.1136 -0.0069 -0.0050
    1OPC    GL272809  12.253  26.215   3.165 -0.2999 -0.1899 -0.0398
    1OPC    C1B72810  12.284  26.140   3.620  0.0223  0.1553 -0.0593
    1OPC    D2B72811  12.029  26.165   3.902  0.2371  0.3565 -0.0257
    1OPC    C3B72812  11.924  25.755   4.074  0.0303  0.0245  0.0576
    1OPC    C4B72813  11.595  25.624   4.281 -0.0407 -0.3195 -0.0240
    1OPC    NC372814  11.548   0.538   2.277 -0.1091  0.0746  0.3744
    1OPC    PO472815  11.412   0.803   2.620 -0.0447 -0.0969  0.0843
    1OPC    GL172816  11.594   1.173   2.888 -0.1747  0.2125  0.3644
    1OPC    GL272817  11.498   1.504   3.065 -0.0153  0.0236  0.0960
    1OPC    C1B72818  11.645   1.674   3.369 -0.0123 -0.1625 -0.1708
    1OPC    D2B72819  11.773   1.847   3.705  0.0232  0.5971 -0.3408
    1OPC    C3B72820  11.807   2.217   3.808 -0.0392 -0.0583 -0.0878
    1OPC    C4B72821  11.514   2.366   3.576  0.0120 -0.1620 -0.0095
    1OPC    NC372822   8.268   2.837   3.218  0.0303 -0.0347 -0.2185
    1OPC    PO472823   8.111   2.390   3.254 -0.2110 -0.1628 -0.1017
    1OPC    GL172824   7.945   2.037   3.539  0.2227 -0.1496  0.1830
    1OPC    GL272825   7.701   1.756   3.709  0.1323 -0.1810 -0.0253
    1OPC    C1B72826   7.569   1.598   4.076  0.1159 -0.0784  0.1381
    1OPC    D2B72827   7.453   1.481   4.505  0.4623  0.1276 -0.1814
    1OPC    C3B72828   7.565   1.594   4.970  0.2045  0.1075 -0.0604
    1OPC    C4B72829   7.197   1.794   5.333 -0.2784  0.1500  0.2674
    1OPC    NC372830  16.318  27.813   2.649  0.3659  0.1456 -0.3217
    1OPC    PO472831  16.136  27.597   2.956 -0.1193  0.3357  0.2807
    1OPC    GL172832  15.796  27.639   3.183  0.2229 -0.2648 -0.1793
    1OPC    GL272833  15.689  27.946   3.389  0.2537  0.0818  0.0822
    1OPC    C1B72834  15.553  28.222   3.691 -0.1034  0.1189  0.1927
    1OPC    D2B72835  15.240  28.260   3.902  0.0527 -0.1107 -0.0684
    1OPC    C3B72836  15.002  28.620   4.026  0.1203 -0.0964 -0.0431
    1OPC    C4B72837  14.992  29.044   3.994 -0.0416  0.0494  0.0324
    1OPC    NC372838  22.133  21.649   2.030  0.0653  0.2641  0.1323
    1OPC    PO472839  21.837  21.329   1.899  0.1279 -0.3029 -0.1790
    1OPC    GL172840  21.639  21.675   2.100 -0.0492  0.0201  0.2199
    1OPC    GL272841  21.519  21.690   2.367  0.2049  0.0249  0.1634
    1OPC    C1B72842  21.459  21.914   2.700  0.2974  0.1641 -0.0301
    1OPC    D2B72843  21.059  22.168   2.795  0.0623  0.4945 -0.3827
    1OPC    C3B72844  21.039  22.244   3.122 -0.0735 -0.1231 -0.1140
    1OPC    C4B72845  20.914  21.971   3.453  0.1744  0.1271  0.2586
    1OPC    NC372846  28.188  24.411   2.324 -0.0212  0.1232  0.0229
    1OPC    PO472847  27.863  24.276   2.641 -0.1731  0.0150 -0.1809
    1OPC    GL172848  27.941  24.245   3.088  0.2311 -0.1856  0.0449
    1OPC    GL272849  27.860  24.271   3.383 -0.0345  0.0790  0.1636
    1OPC    C1B72850  27.682  24.253   3.808  0.6073  0.0690  0.0332
    1OPC    D2B72851  27.349  24.621   3.901  0.1147 -0.0760  0.3482
    1OPC    C3B72852  27.434  24.846   4.282 -0.2394 -0.4440 -0.0018
    1OPC    C4B72853  27.619  24.983   4.581 -0.0630  0.2298 -0.0030
    1OPC    NC372854  30.259  17.457   1.764  0.2054  0.0754 -0.0812
    1OPC    PO472855   0.088  17.172   1.648  0.1245  0.0506 -0.0285
    1OPC    GL172856   0.367  17.300   1.980  0.1535  0.2838  0.3107
    1OPC    GL272857   0.617  17.362   2.120  0.0529  0.0548  0.3454
    1OPC    C1B72858   0.639  17.494   2.567  0.0710 -0.1204  0.0176
    1OPC    D2B72859   0.417  17.615   2.767 -0.0347  0.2153  0.3400
    1OPC    C3B72860   0.431  17.445   3.214  0.1221 -0.0578  0.0412
    1OPC    C4B72861   0.478  17.445   3.713 -0.0174  0.1020  0.2376
    1OPC    NC372862  23.201  12.418   1.612  0.0779 -0.0237  0.0453
    1OPC    PO472863  23.062  12.084   1.757 -0.3745  0.1393  0.2777
    1OPC    GL172864  22.969  12.017   2.165 -0.1396 -0.1723 -0.2099
    1OPC    GL272865  22.847  11.943   2.461 -0.2489 -0.1029 -0.2333
    1OPC    C1B72866  22.896  12.015   2.876  0.3108  0.3318 -0.2129
    1OPC    D2B72867  22.916  11.912   3.352  0.1831  0.0796 -0.0278
    1OPC    C3B72868  23.114  11.553   3.430 -0.3468 -0.0062  0.0595
    1OPC    C4B72869  23.246  11.203   3.584 -0.1229 -0.3031 -0.0188
    1OPC    NC372870   5.847  20.629   1.286 -0.0813 -0.1335 -0.0753
    1OPC    PO472871   5.623  20.225   1.500  0.0361  0.1278  0.1152
    1OPC    GL172872   5.527  20.168   1.912 -0.2066 -0.0809 -0.0644
    1OPC    GL272873   5.477  20.010   2.221 -0.1891  0.0785  0.1103
    1OPC    C1B72874   5.609  19.765   2.629  0.4415 -0.1894  0.1491
    1OPC    D2B72875   5.589  19.580   3.028 -0.1767 -0.1034  0.0712
    1OPC    C3B72876   5.882  19.284   3.268 -0.0782 -0.3176 -0.0576
    1OPC    C4B72877   6.096  18.958   3.461  0.2489  0.0597  0.0305
    1OPC    NC372878   8.841   7.977   2.905 -0.1285  0.4354 -0.1819
    1OPC    PO472879   8.464   8.132   2.856 -0.0960  0.0569 -0.0403
    1OPC    GL172880   8.477   8.140   3.272  0.1123  0.2445  0.1398
    1OPC    GL272881   8.471   8.227   3.565  0.0114 -0.0903  0.0034
    1OPC    C1B72882   8.574   8.495   3.891  0.0316 -0.3220 -0.0793
    1OPC    D2B72883   8.245   8.555   4.089 -0.2089  0.5471  0.2104
    1OPC    C3B72884   8.016   8.539   4.522 -0.1727 -0.1260 -0.2376
    1OPC    C4B72885   7.796   8.533   4.861  0.3839  0.1246 -0.0666
    1OPC    NC372886   0.365  18.628   1.854 -0.0033  0.0773  0.0340
    1OPC    PO472887   0.159  18.258   1.619 -0.2023  0.1062 -0.1289
    1OPC    GL172888   0.209  18.156   2.009 -0.0312 -0.2237 -0.1632
    1OPC    GL272889   0.219  18.338   2.312  0.2436 -0.0391  0.1771
    1OPC    C1B72890   0.153  18.513   2.692 -0.1195  0.3577  0.1127
    1OPC    D2B72891   0.209  18.538   3.115 -0.6096  0.1778 -0.0602
    1OPC    C3B72892   0.255  18.354   3.428  0.0598  0.0629  0.0545
    1OPC    C4B72893   0.394  18.350   3.833 -0.0949  0.1834  0.2357
    1OPC    NC372894  27.233   6.208   3.181  0.3216 -0.0969  0.0230
    1OPC    PO472895  27.022   5.889   3.455 -0.1617 -0.1262  0.3177
    1OPC    GL172896  26.819   6.027   3.847  0.2558 -0.0740  0.0302
    1OPC    GL272897  26.781   5.826   4.161  0.0297  0.1110 -0.1533
    1OPC    C1B72898  26.650   5.832   4.602  0.2135 -0.1870 -0.0394
    1OPC    D2B72899  26.579   6.145   4.951  0.0663  0.0845  0.1252
    1OPC    C3B72900  26.140   6.141   5.041 -0.2316  0.1114 -0.0124
    1OPC    C4B72901  25.934   6.034   5.505  0.0182 -0.0282 -0.3236
    1OPC    NC372902  11.095  17.572   2.728 -0.1774 -0.3432 -0.0509
    1OPC    PO472903  11.140  17.954   2.474 -0.0931  0.1559 -0.1877
    1OPC    GL172904  11.102  18.104   2.886 -0.0570  0.1997 -0.0986
    1OPC    GL272905  11.173  17.975   3.201  0.0450  0.1607  0.1189
    1OPC    C1B72906  11.278  17.971   3.616  0.3018 -0.1027  0.0119
    1OPC    D2B72907  11.123  18.129   4.043  0.0231  0.2604  0.1154
    1OPC    C3B72908  10.922  17.825   4.303 -0.2272 -0.1256  0.0191
    1OPC    C4B72909  10.647  17.567   4.645  0.2593  0.2975  0.0226
    1OPC    NC372910   0.783  20.178   1.445 -0.3257 -0.3591 -0.2106
    1OPC    PO472911   0.926  20.619   1.719 -0.0754  0.0984  0.0157
    1OPC    GL172912   0.834  20.477   2.150  0.3886 -0.0851  0.2828
    1OPC    GL272913   0.845  20.511   2.516 -0.1489 -0.1313  0.2917
    1OPC    C1B72914   0.747  20.345   2.908 -0.2600 -0.0792  0.2485
    1OPC    D2B72915   0.879  20.216   3.351  0.0505 -0.1435 -0.0773
    1OPC    C3B72916   1.150  20.416   3.688  0.1426 -0.1186 -0.0903
    1OPC    C4B72917   1.587  20.469   3.885  0.0494 -0.1050 -0.0151
    1OPC    NC372918   9.703  30.318   3.280 -0.1631 -0.0345  0.1563
    1OPC    PO472919   9.411  30.070   3.083  0.1184 -0.1487 -0.4118
    1OPC    GL172920   9.251  29.924   3.491 -0.0643  0.1455  0.0244
    1OPC    GL272921   8.979  29.803   3.769 -0.1268 -0.1882 -0.0458
    1OPC    C1B72922   8.892  30.013   4.179 -0.1207 -0.2103 -0.0724
    1OPC    D2B72923   8.892   0.078   4.419  0.1378 -0.1141 -0.0550
    1OPC    C3B72924   9.004   0.085   4.874  0.2023 -0.0013  0.2972
    1OPC    C4B72925   9.281   0.244   5.178  0.1841  0.1221  0.1657
    1OPC    NC372926  25.097  10.999   1.708 -0.0336 -0.1626  0.2096
    1OPC    PO472927  25.523  11.147   1.907 -0.4937 -0.0147  0.0526
    1OPC    GL172928  25.373  10.772   2.053  0.2957  0.2932  0.2098
    1OPC    GL272929  25.067  10.606   2.224 -0.0785  0.0535 -0.1467
    1OPC    C1B72930  25.061  10.357   2.682 -0.1575 -0.3422  0.1898
    1OPC    D2B72931  25.358  10.379   3.001  0.4979 -0.3787  0.0864
    1OPC    C3B72932  25.296  10.773   3.181  0.0435 -0.2025 -0.1082
    1OPC    C4B72933  25.196  11.269   3.064 -0.1246 -0.1678 -0.1303
    1OPC    NC372934  29.160  15.538   1.495  0.3653  0.3000 -0.1287
    1OPC    PO472935  29.183  15.121   1.697 -0.1666  0.0621  0.2793
    1OPC    GL172936  28.922  15.163   2.065 -0.1489 -0.0028 -0.0784
    1OPC    GL272937  28.790  15.034   2.378 -0.2913 -0.1865  0.0771
    1OPC    C1B72938  28.763  15.067   2.865  0.1131  0.1195  0.1376
    1OPC    D2B72939  28.617  15.159   3.181  0.0375  0.1426 -0.0199
    1OPC    C3B72940  28.756  15.202   3.627  0.2370 -0.0563 -0.2723
    1OPC    C4B72941  28.748  15.478   3.937 -0.1852 -0.0501 -0.1116
    1OPC    NC372942  24.249  18.595   0.962 -0.3909  0.1273 -0.0298
    1OPC    PO472943  24.209  18.218   1.310  0.0774 -0.2065  0.4472
    1OPC    GL172944  24.537  18.082   1.750 -0.0379 -0.1464  0.1442
    1OPC    GL272945  24.590  18.142   2.145  0.2181 -0.0266  0.4341
    1OPC    C1B72946  24.407  18.227   2.590  0.1161 -0.3300  0.0246
    1OPC    D2B72947  24.356  18.273   3.016 -0.3975  0.2378 -0.0150
    1OPC    C3B72948  24.437  17.976   3.334  0.0674 -0.2217  0.1583
    1OPC    C4B72949  24.836  17.813   3.407 -0.1089  0.0996  0.0096
    1OPC    NC372950   4.649  16.817   1.291 -0.0358 -0.0549 -0.0286
    1OPC    PO472951   4.269  16.864   1.530  0.0244 -0.0569 -0.0197
    1OPC    GL172952   4.459  16.758   1.850  0.0559  0.1738  0.3187
    1OPC    GL272953   4.374  16.868   2.176 -0.2101  0.3825 -0.0344
    1OPC    C1B72954   4.455  16.613   2.520  0.1826  0.1082  0.1137
    1OPC    D2B72955   4.477  16.364   2.844  0.2233 -0.2523  0.0138
    1OPC    C3B72956   4.427  16.375   3.275  0.1493 -0.2694  0.0843
    1OPC    C4B72957   4.351  16.552   3.568  0.1568 -0.0183  0.1243
    1OPC    NC372958  26.434  12.337   1.714  0.1104  0.2534 -0.1474
    1OPC    PO472959  26.570  12.091   2.117 -0.2291 -0.1809 -0.0403
    1OPC    GL172960  26.452  12.054   2.521 -0.2654  0.2005 -0.2258
    1OPC    GL272961  26.243  11.861   2.664  0.2799 -0.1860 -0.3023
    1OPC    C1B72962  26.037  11.968   3.021  0.1314  0.0328 -0.0788
    1OPC    D2B72963  25.842  11.930   3.391  0.0287  0.0717 -0.2622
    1OPC    C3B72964  25.990  11.561   3.688 -0.3403 -0.0873 -0.1770
    1OPC    C4B72965  25.889  11.092   3.759 -0.1334 -0.2474 -0.2680
    1OPC    NC372966  21.062  10.314   2.148  0.1302  0.0683 -0.1509
    1OPC    PO472967  20.752  10.187   2.511  0.0241  0.1317  0.1849
    1OPC    GL172968  20.924   9.965   2.808 -0.2668  0.1024  0.0121
    1OPC    GL272969  20.973  10.063   3.182 -0.0341 -0.0060  0.1601
    1OPC    C1B72970  21.120  10.165   3.661 -0.0825 -0.0082  0.0505
    1OPC    D2B72971  21.230  10.175   4.142  0.0743  0.2800 -0.3731
    1OPC    C3B72972  21.434  10.400   4.383  0.1191 -0.2335 -0.0250
    1OPC    C4B72973  21.650  10.747   4.264 -0.0618  0.1226  0.0581
    1OPC    NC372974  26.463  22.485   1.594  0.4172 -0.3409 -0.1461
    1OPC    PO472975  26.296  22.256   1.988  0.0183  0.2761 -0.0767
    1OPC    GL172976  26.126  22.149   2.357 -0.3087 -0.0560  0.1696
    1OPC    GL272977  25.996  22.029   2.538  0.2324  0.3027 -0.0556
    1OPC    C1B72978  26.078  21.707   2.898  0.1573  0.0533 -0.3089
    1OPC    D2B72979  26.232  21.360   3.154 -0.0479 -0.0161  0.2622
    1OPC    C3B72980  26.082  21.349   3.578 -0.0658  0.1595 -0.2014
    1OPC    C4B72981  26.077  21.330   4.076 -0.0443 -0.1737 -0.1643
    1OPC    NC372982  14.652  10.124   2.328  0.0407  0.0698 -0.2395
    1OPC    PO472983  15.033   9.996   2.363  0.0847 -0.3055  0.0021
    1OPC    GL172984  15.162   9.819   2.741 -0.2611 -0.0938 -0.0226
    1OPC    GL272985  15.310   9.833   3.071  0.1008  0.1104 -0.1799
    1OPC    C1B72986  15.374   9.736   3.407  0.2498 -0.1218 -0.1654
    1OPC    D2B72987  15.218   9.670   3.842 -0.0492 -0.0065  0.2500
    1OPC    C3B72988  14.969   9.369   3.853  0.3014 -0.0758 -0.1515
    1OPC    C4B72989  15.139   9.021   3.707 -0.0349 -0.0847 -0.3504
    1OPC    NC372990  28.380  15.609   1.501  0.0114 -0.2312 -0.3428
    1OPC    PO472991  28.143  15.320   1.733 -0.3780  0.0355  0.1232
    1OPC    GL172992  28.410  15.309   2.128 -0.0200 -0.3024  0.0839
    1OPC    GL272993  28.396  15.418   2.377  0.0498  0.0535 -0.0596
    1OPC    C1B72994  28.261  15.261   2.763  0.0989  0.2258  0.0744
    1OPC    D2B72995  28.180  15.436   3.214  0.4204  0.2515  0.1186
    1OPC    C3B72996  28.281  15.396   3.691 -0.2925 -0.0442  0.0437
    1OPC    C4B72997  28.233  15.456   4.084  0.0285  0.0669 -0.1749
    1OPC    NC372998  29.189  11.982   2.405 -0.3584 -0.0490 -0.0620
    1OPC    PO472999  28.746  12.074   2.279  0.3479 -0.0151 -0.0608
    1OPC    GL173000  28.372  12.185   2.529  0.2419  0.1207 -0.1878
    1OPC    GL273001  28.336  12.236   2.884  0.1119  0.1968 -0.1052
    1OPC    C1B73002  28.746  12.357   3.081 -0.0035 -0.0428 -0.1028
    1OPC    D2B73003  29.047  12.017   2.920  0.2107  0.0410  0.1747
    1OPC    C3B73004  29.507  11.866   3.093  0.3645  0.1066  0.3079
    1OPC    C4B73005  29.509  11.408   3.312  0.0633 -0.2369  0.1974
    1OPC    NC373006   9.350  20.138   1.669 -0.1305 -0.0837  0.1735
    1OPC    PO473007   9.456  20.366   2.024 -0.1211  0.1115  0.1269
    1OPC    GL173008   9.673  20.561   2.403 -0.1675  0.0314 -0.1560
    1OPC    GL273009   9.590  20.590   2.685  0.1316  0.2277  0.0598
    1OPC    C1B73010   9.625  20.787   3.105 -0.0305 -0.2871  0.1106
    1OPC    D2B73011   9.463  20.795   3.538 -0.1331 -0.0208  0.2669
    1OPC    C3B73012   9.612  20.847   3.943 -0.1498  0.2925  0.0780
    1OPC    C4B73013   9.483  20.825   4.452  0.2399 -0.0739 -0.0840
    1OPC    NC373014  27.671   1.230   3.238  0.0321  0.1757 -0.3219
    1OPC    PO473015  27.821   1.119   3.726  0.0816  0.1764  0.0027
    1OPC    GL173016  27.907   0.813   4.201 -0.2770  0.4480  0.0807
    1OPC    GL273017  27.800   0.591   4.325 -0.1245  0.0259 -0.0879
    1OPC    C1B73018  27.884   0.488   4.735 -0.2617  0.0082  0.0059
    1OPC    D2B73019  28.104   0.391   5.078  0.2755 -0.3314  0.2256
    1OPC    C3B73020  27.893   0.443   5.480 -0.2003  0.1289  0.0517
    1OPC    C4B73021  27.673   0.906   5.561 -0.0058  0.0450  0.2033
    1OPC    NC373022   6.639  21.435   1.287  0.1125  0.1295  0.2306
    1OPC    PO473023   6.961  21.623   1.620  0.0204  0.1542 -0.1636
    1OPC    GL173024   6.799  21.201   1.847  0.1325  0.0928  0.2663
    1OPC    GL273025   6.524  21.089   1.897 -0.0845 -0.0554  0.0850
    1OPC    C1B73026   6.359  20.974   2.323 -0.0907  0.0421 -0.0877
    1OPC    D2B73027   5.937  20.714   2.398 -0.0224  0.1482 -0.0387
    1OPC    C3B73028   5.852  20.659   2.836 -0.1285  0.1022  0.0504
    1OPC    C4B73029   5.845  20.620   3.265 -0.1138  0.1053 -0.0009
    1OPC    NC373030   7.145  17.075   0.994  0.1511  0.0802  0.1295
    1OPC    PO473031   6.886  17.037   1.300  0.0917  0.0434 -0.1222
    1OPC    GL173032   6.919  17.206   1.743  0.1070  0.0183  0.1942
    1OPC    GL273033   6.904  17.462   1.987  0.1592 -0.3149 -0.0269
    1OPC    C1B73034   6.800  17.481   2.452 -0.4417 -0.1353 -0.1014
    1OPC    D2B73035   7.053  17.528   2.777 -0.1476  0.5116 -0.2289
    1OPC    C3B73036   7.030  17.379   3.185  0.1836 -0.1979  0.0060
    1OPC    C4B73037   7.106  17.238   3.585  0.0201  0.2646  0.1435
    1OPC    NC373038   1.654  28.914   3.154 -0.3794  0.0981  0.2943
    1OPC    PO473039   2.061  28.827   3.388  0.2099 -0.2816  0.2256
    1OPC    GL173040   2.171  28.729   3.794 -0.1145  0.0918  0.0982
    1OPC    GL273041   2.212  28.856   4.035 -0.1574  0.0499  0.2308
    1OPC    C1B73042   2.495  28.775   4.415  0.1037  0.1648  0.0936
    1OPC    D2B73043   2.538  28.704   4.838  0.0948 -0.1384 -0.0433
    1OPC    C3B73044   2.195  28.825   5.064 -0.1534  0.3638 -0.2170
    1OPC    C4B73045   1.929  28.969   5.467 -0.1182  0.0220  0.0608
    1OPC    NC373046   0.555  13.096   1.754 -0.0810  0.1996  0.0650
    1OPC    PO473047   0.886  12.829   1.866 -0.2928 -0.0087  0.1788
    1OPC    GL173048   0.633  12.878   2.187  0.3352  0.1868  0.0254
    1OPC    GL273049   0.592  12.947   2.447 -0.0508  0.2727 -0.1900
    1OPC    C1B73050   0.598  12.962   2.901  0.2085 -0.0795 -0.1789
    1OPC    D2B73051   0.427  12.834   3.250  0.3763  0.0329  0.1040
    1OPC    C3B73052   0.516  12.918   3.663  0.1059 -0.0764  0.1932
    1OPC    C4B73053   0.461  13.067   4.133 -0.0874  0.0441  0.0828
    1OPC    NC373054  28.604  10.064   2.044 -0.1023  0.3440  0.2341
    1OPC    PO473055  28.458  10.273   2.429  0.0239  0.2047  0.2788
    1OPC    GL173056  28.315  10.030   2.740  0.0432  0.0325  0.0279
    1OPC    GL273057  28.422   9.947   3.012  0.1922  0.2152  0.2776
    1OPC    C1B73058  28.397   9.771   3.417 -0.0370 -0.0135 -0.2174
    1OPC    D2B73059  28.139   9.941   3.683 -0.2342 -0.3257  0.0542
    1OPC    C3B73060  27.982  10.088   4.135  0.1520 -0.1665 -0.2080
    1OPC    C4B73061  27.563  10.166   4.403  0.1395 -0.0813 -0.2271
    1OPC    NC373062  18.268   7.421   1.885 -0.0005  0.3486  0.0676
    1OPC    PO473063  18.657   7.297   2.065 -0.3222  0.0479  0.0033
    1OPC    GL173064  18.675   6.982   2.495 -0.1843 -0.2128 -0.0834
    1OPC    GL273065  18.699   6.722   2.754  0.1994 -0.0641 -0.3460
    1OPC    C1B73066  18.607   6.487   3.126 -0.0162  0.1654 -0.0851
    1OPC    D2B73067  18.285   6.480   3.460 -0.1052 -0.0584 -0.3045
    1OPC    C3B73068  18.206   6.896   3.478 -0.0398  0.0354  0.0467
    1OPC    C4B73069  18.436   7.245   3.614  0.1036 -0.0358  0.0298
    1OPC    NC373070   0.844  21.065   1.489 -0.0003  0.1598 -0.0863
    1OPC    PO473071   1.217  21.051   1.860 -0.0433  0.0547  0.0047
    1OPC    GL173072   1.190  20.829   2.232  0.0634 -0.3932  0.0461
    1OPC    GL273073   1.289  20.492   2.293 -0.3631 -0.1994  0.2017
    1OPC    C1B73074   1.304  20.250   2.725 -0.3565  0.0507  0.2747
    1OPC    D2B73075   1.393  19.940   3.015 -0.0812  0.1932 -0.1283
    1OPC    C3B73076   1.410  19.999   3.446 -0.5957  0.1682  0.0444
    1OPC    C4B73077   1.072  19.955   3.776  0.1786  0.0118 -0.2560
    1OPC    NC373078   3.564  11.979   2.367  0.1313 -0.2525  0.1827
    1OPC    PO473079   3.634  11.485   2.396 -0.0012 -0.1992  0.4184
    1OPC    GL173080   3.942  11.579   2.778 -0.4241  0.0500 -0.0161
    1OPC    GL273081   4.002  11.835   2.870 -0.0527 -0.0383  0.0594
    1OPC    C1B73082   3.959  11.796   3.324  0.1399 -0.3964 -0.1405
    1OPC    D2B73083   4.023  11.828   3.698  0.2741 -0.1110 -0.0066
    1OPC    C3B73084   3.938  12.061   4.052  0.2332 -0.5113  0.1016
    1OPC    C4B73085   4.000  12.081   4.519  0.3635 -0.3758 -0.2157
    1OPC    NC373086   0.343  20.421   1.971 -0.1684 -0.2582  0.3302
    1OPC    PO473087   0.411  20.582   1.615 -0.1773  0.0361 -0.1517
    1OPC    GL173088   0.487  20.876   1.834 -0.0087 -0.1336  0.0852
    1OPC    GL273089   0.721  20.946   2.058 -0.1720 -0.1470  0.2084
    1OPC    C1B73090   0.749  20.996   2.469 -0.0897 -0.4350 -0.0059
    1OPC    D2B73091   0.787  21.171   2.796  0.0369  0.0530 -0.3421
    1OPC    C3B73092   0.677  21.182   3.208  0.1537  0.0598  0.2277
    1OPC    C4B73093   0.714  21.325   3.571  0.3170  0.1145  0.0795
    1OPC    NC373094  20.946  15.553   2.025  0.1466 -0.1426 -0.1923
    1OPC    PO473095  21.309  15.909   2.064  0.1173  0.0297  0.1429
    1OPC    GL173096  21.342  16.206   2.453  0.3684  0.4238  0.0287
    1OPC    GL273097  21.576  16.344   2.715 -0.0973 -0.0293 -0.0229
    1OPC    C1B73098  21.797  16.693   2.993 -0.0450 -0.1524  0.0924
    1OPC    D2B73099  21.984  16.995   3.194  0.1784 -0.0350  0.1068
    1OPC    C3B73100  22.091  16.923   3.640  0.1846  0.0274  0.0901
    1OPC    C4B73101  21.878  17.154   3.975 -0.1770 -0.1619 -0.0888
    1OPC    NC373102   7.284  26.489   2.533  0.2790 -0.0867 -0.2017
    1OPC    PO473103   7.384  26.035   2.229  0.0855 -0.2119 -0.1092
    1OPC    GL173104   7.677  26.127   2.643 -0.3098 -0.3061  0.1152
    1OPC    GL273105   7.939  26.124   2.830 -0.0089 -0.1147 -0.1241
    1OPC    C1B73106   8.042  26.263   3.165 -0.1866 -0.0227  0.0260
    1OPC    D2B73107   8.295  26.207   3.563  0.0339 -0.1841 -0.1251
    1OPC    C3B73108   8.058  26.454   3.946  0.2726 -0.0957 -0.0187
    1OPC    C4B73109   7.887  26.722   4.339  0.0062  0.1669  0.0211
    1OPC    NC373110   7.922  26.530   2.490  0.1539 -0.0274 -0.1850
    1OPC    PO473111   8.364  26.537   2.302  0.3220 -0.1260 -0.0739
    1OPC    GL173112   8.307  26.412   2.782  0.0405 -0.0350 -0.0873
    1OPC    GL273113   8.473  26.432   3.053 -0.3237 -0.2714  0.2946
    1OPC    C1B73114   8.747  26.378   3.419  0.0455  0.2291 -0.0832
    1OPC    D2B73115   8.691  26.110   3.871  0.1774  0.3508  0.3648
    1OPC    C3B73116   8.363  26.155   4.156  0.0118 -0.4149  0.0827
    1OPC    C4B73117   8.087  26.343   4.484 -0.1030  0.0904 -0.2585
    1OPC    NC373118   3.792   5.190   3.412 -0.0309  0.1766  0.1731
    1OPC    PO473119   3.997   4.876   3.187  0.1439  0.3325  0.0805
    1OPC    GL173120   4.120   4.558   3.454 -0.0173 -0.1448  0.2527
    1OPC    GL273121   4.405   4.548   3.764 -0.0838  0.0165 -0.0497
    1OPC    C1B73122   4.489   4.630   4.209 -0.2295 -0.0221  0.1832
    1OPC    D2B73123   4.470   4.619   4.606  0.1727 -0.1077 -0.0848
    1OPC    C3B73124   4.726   4.300   4.788 -0.0368  0.3877 -0.2246
    1OPC    C4B73125   4.903   4.209   5.242 -0.1084  0.4110 -0.2225
    1OPC    NC373126   3.037  25.062   2.859  0.1533  0.2841 -0.1467
    1OPC    PO473127   3.038  24.642   2.660  0.1628 -0.1779  0.2998
    1OPC    GL173128   3.115  24.434   3.080 -0.0066 -0.0249  0.0734
    1OPC    GL273129   3.034  24.273   3.271 -0.1432 -0.0168 -0.3562
    1OPC    C1B73130   2.990  24.206   3.681  0.2318  0.1032 -0.1199
    1OPC    D2B73131   3.083  24.250   4.072  0.1333 -0.0501  0.0742
    1OPC    C3B73132   3.250  24.590   4.079 -0.1440  0.3605  0.0591
    1OPC    C4B73133   3.501  24.948   3.954 -0.2571  0.4096 -0.1897
    1OPC    NC373134  13.118   3.253   2.668 -0.0489  0.2149  0.0214
    1OPC    PO473135  13.534   2.985   2.700  0.2264 -0.0947 -0.0342
    1OPC    GL173136  13.367   2.788   2.984  0.0811 -0.4527  0.1408
    1OPC    GL273137  13.150   3.000   3.149 -0.0112  0.1513 -0.0450
    1OPC    C1B73138  13.204   3.300   3.415  0.1540 -0.0940 -0.4040
    1OPC    D2B73139  13.412   3.545   3.784 -0.0034  0.0039  0.4208
    1OPC    C3B73140  13.757   3.547   4.184 -0.0747  0.5861 -0.2710
    1OPC    C4B73141  13.970   3.903   4.326  0.1570  0.0043 -0.3605
    1OPC    NC373142  28.537  28.076   2.918  0.1955 -0.0778  0.2253
    1OPC    PO473143  28.252  28.468   3.033  0.0361 -0.0843 -0.1831
    1OPC    GL173144  28.091  28.476   3.503 -0.1088  0.0857  0.1060
    1OPC    GL273145  28.274  28.469   3.703 -0.1156 -0.3104 -0.0638
    1OPC    C1B73146  28.321  28.233   4.113 -0.1500  0.0903 -0.0023
    1OPC    D2B73147  28.455  28.169   4.493 -0.3606  0.2419 -0.2078
    1OPC    C3B73148  28.260  28.039   4.835  0.0805 -0.2339  0.0089
    1OPC    C4B73149  28.053  27.938   5.173  0.0940  0.0331  0.1276
    1OPC    NC373150  25.135  24.025   2.402  0.1448 -0.0550  0.0329
    1OPC    PO473151  24.683  24.150   2.505 -0.1505  0.3346  0.1995
    1OPC    GL173152  24.909  24.177   2.958  0.1299  0.1661  0.1837
    1OPC    GL273153  24.965  24.308   3.241 -0.5041  0.1132  0.3756
    1OPC    C1B73154  25.241  24.305   3.612  0.1542  0.1568  0.0530
    1OPC    D2B73155  25.604  24.236   3.751 -0.3026  0.1965  0.2151
    1OPC    C3B73156  25.443  24.308   4.211 -0.0528  0.2360 -0.0185
    1OPC    C4B73157  25.532  24.566   4.505  0.1417  0.0331 -0.0779
    1OPC    NC373158  19.248  11.070   2.112  0.0173 -0.1009  0.0273
    1OPC    PO473159  19.426  11.210   2.498  0.0716 -0.0139  0.0888
    1OPC    GL173160  19.540  11.370   2.886 -0.4579 -0.3603  0.0421
    1OPC    GL273161  19.691  11.543   3.202  0.1625  0.2325 -0.1719
    1OPC    C1B73162  19.797  11.608   3.557  0.2016  0.1252  0.3615
    1OPC    D2B73163  19.697  11.826   3.793  0.0268  0.0581 -0.2735
    1OPC    C3B73164  19.607  11.638   4.265 -0.0528  0.1298  0.2231
    1OPC    C4B73165  19.321  11.544   4.607 -0.1021  0.1399 -0.0769
    1OPC    NC373166   3.521  12.872   1.882 -0.1069  0.2703 -0.0303
    1OPC    PO473167   3.886  12.667   2.011  0.1000 -0.1623 -0.2984
    1OPC    GL173168   3.610  12.657   2.355  0.1083 -0.0754  0.1946
    1OPC    GL273169   3.456  12.842   2.628  0.2299 -0.1263  0.0852
    1OPC    C1B73170   3.490  12.987   3.004 -0.0270 -0.0845  0.0496
    1OPC    D2B73171   3.400  12.819   3.348  0.0307  0.0902  0.1411
    1OPC    C3B73172   3.454  12.914   3.718  0.1820  0.0343  0.1358
    1OPC    C4B73173   3.658  13.169   4.009 -0.4865  0.1542  0.3650
    1OPC    NC373174   2.716   9.572   1.991  0.3416 -0.1343  0.0789
    1OPC    PO473175   3.088   9.515   2.307 -0.1925 -0.0712 -0.3500
    1OPC    GL173176   3.179   9.207   2.678 -0.1578 -0.0024  0.1047
    1OPC    GL273177   3.360   9.018   2.951 -0.0323 -0.3671  0.0586
    1OPC    C1B73178   3.356   9.091   3.396  0.0799 -0.3195  0.1758
    1OPC    D2B73179   3.199   9.126   3.842  0.0115 -0.2631  0.1633
    1OPC    C3B73180   3.390   8.882   4.168 -0.1760  0.0639  0.1050
    1OPC    C4B73181   3.665   8.714   4.461 -0.1346  0.0169 -0.0810
    1OPC    NC373182  25.310  13.102   2.107 -0.1558 -0.0336  0.0651
    1OPC    PO473183  25.658  13.358   2.213 -0.1597  0.0524  0.1502
    1OPC    GL173184  25.919  13.329   2.513  0.2126 -0.0943 -0.2993
    1OPC    GL273185  26.046  13.427   2.748  0.1234  0.3367 -0.1051
    1OPC    C1B73186  26.042  13.277   3.186  0.1250  0.2080 -0.1577
    1OPC    D2B73187  26.014  13.200   3.636 -0.3245 -0.0526 -0.1978
    1OPC    C3B73188  25.969  13.270   3.993 -0.1825 -0.2880 -0.0800
    1OPC    C4B73189  25.910  13.270   4.390 -0.3028  0.0769 -0.0551
    1OPC    NC373190   9.334  16.141   1.916 -0.1094 -0.1062  0.1494
    1OPC    PO473191   9.009  16.031   2.103 -0.0133 -0.2110  0.0771
    1OPC    GL173192   8.786  16.254   2.372  0.0565 -0.0670 -0.1762
    1OPC    GL273193   8.493  16.367   2.403  0.0153  0.0722 -0.1320
    1OPC    C1B73194   8.010  16.476   2.616 -0.0467 -0.0001  0.3009
    1OPC    D2B73195   7.625  16.655   2.988  0.0103  0.1196  0.0926
    1OPC    C3B73196   7.576  16.498   3.329  0.0130  0.3350 -0.2782
    1OPC    C4B73197   7.320  16.384   3.653  0.6381 -0.1248  0.3130
    1OPC    NC373198   6.821   6.407   2.846 -0.1628 -0.1293  0.2798
    1OPC    PO473199   6.343   6.519   3.025  0.0874  0.4356  0.0923
    1OPC    GL173200   6.086   6.750   3.270  0.1687 -0.0276 -0.0666
    1OPC    GL273201   5.860   6.998   3.424  0.3008 -0.0868  0.2603
    1OPC    C1B73202   5.778   7.225   3.791  0.0174 -0.0880 -0.0832
    1OPC    D2B73203   5.699   7.324   4.111  0.1314 -0.0620 -0.4323
    1OPC    C3B73204   5.379   7.122   4.450 -0.0566  0.3448 -0.1273
    1OPC    C4B73205   5.015   6.966   4.638  0.1184  0.1122 -0.0535
    1OPC    NC373206  17.864  11.839   2.234  0.3848  0.1861  0.3492
    1OPC    PO473207  17.849  11.722   2.722 -0.1412  0.1603 -0.2655
    1OPC    GL173208  17.650  11.506   3.025  0.0940 -0.3806  0.0412
    1OPC    GL273209  17.363  11.506   3.223  0.3145 -0.0949  0.3230
    1OPC    C1B73210  17.449  11.303   3.605  0.0744  0.4154 -0.1186
    1OPC    D2B73211  17.220  11.099   3.911 -0.3018  0.1157 -0.3048
    1OPC    C3B73212  16.830  10.877   3.898  0.0197  0.0084  0.0468
    1OPC    C4B73213  16.525  10.607   4.058  0.1195  0.0775 -0.2410
    1OPC    NC373214   8.020   9.688   2.668 -0.0246  0.0095  0.0661
    1OPC    PO473215   7.588   9.793   2.442 -0.0545 -0.0258 -0.1410
    1OPC    GL173216   7.617   9.879   2.858 -0.2441 -0.2198 -0.3027
    1OPC    GL273217   7.603   9.964   3.160 -0.1361  0.1514  0.1951
    1OPC    C1B73218   7.562   9.846   3.611 -0.3270 -0.2398 -0.0890
    1OPC    D2B73219   7.566   9.921   4.070  0.0393 -0.1418  0.1306
    1OPC    C3B73220   7.699   9.544   4.311  0.2699 -0.0611  0.1921
    1OPC    C4B73221   7.874   9.601   4.654  0.2398  0.1064  0.1470
    1OPC    NC373222   7.347   8.420   2.523 -0.0722  0.0945 -0.1439
    1OPC    PO473223   7.327   8.005   2.780 -0.1981  0.0006  0.1319
    1OPC    GL173224   7.421   8.159   3.227  0.0683 -0.0840 -0.1067
    1OPC    GL273225   7.431   8.086   3.497  0.1993 -0.1389 -0.2329
    1OPC    C1B73226   7.432   7.853   3.865  0.1784  0.2420  0.3020
    1OPC    D2B73227   7.441   7.762   4.321  0.0012 -0.2780 -0.1920
    1OPC    C3B73228   7.332   7.433   4.731 -0.0113 -0.1691 -0.0892
    1OPC    C4B73229   7.120   7.515   5.110 -0.0837  0.0861 -0.2275
    1OPC    NC373230   3.920   3.897   2.913 -0.2163 -0.2107  0.2174
    1OPC    PO473231   4.056   3.619   3.185 -0.3167  0.0440  0.1584
    1OPC    GL173232   4.116   4.017   3.449 -0.0946  0.2037  0.0416
    1OPC    GL273233   4.235   4.128   3.768  0.2344 -0.2305 -0.3212
    1OPC    C1B73234   4.406   4.114   4.175 -0.0301  0.1851 -0.2107
    1OPC    D2B73235   4.744   3.949   4.441  0.1680 -0.1124  0.0486
    1OPC    C3B73236   4.751   3.815   4.833  0.0360 -0.0790 -0.0091
    1OPC    C4B73237   4.834   3.454   5.039 -0.1411  0.0535  0.1615
    1OPC    NC373238  20.081   1.310   2.565 -0.0883  0.0033  0.0888
    1OPC    PO473239  20.261   1.511   2.922 -0.1676  0.1388 -0.1559
    1OPC    GL173240  20.239   1.524   3.398 -0.1285 -0.0031  0.1587
    1OPC    GL273241  20.074   1.464   3.576  0.1672  0.1172 -0.3023
    1OPC    C1B73242  19.905   1.459   3.930 -0.0352 -0.0015 -0.2136
    1OPC    D2B73243  19.795   1.482   4.374 -0.2912 -0.0283 -0.0552
    1OPC    C3B73244  20.197   1.775   4.538  0.2190 -0.0799 -0.0342
    1OPC    C4B73245  20.018   2.091   4.832  0.0155  0.0124  0.1575
  30.35547  30.35547   9.27326
